L15x15x15_cubic/conf.lmp (written by ASE) 

16875 	 atoms 
3  atom types
0.0                    58.5  xlo xhi
0.0                    58.5  ylo yhi
0.0                    58.5  zlo zhi


Atoms 

     1   2                       0                       0                       0
     2   3                    1.95                    1.95      2.0670000000000002
     3   1                    1.95                    1.95     0.39000000000000001
     4   1                       0                    1.95      2.3399999999999999
     5   1                    1.95                       0      2.3399999999999999
     6   2                       0                       0      3.8999999999999999
     7   3                    1.95                    1.95      5.9670000000000005
     8   1                    1.95                    1.95                    4.29
     9   1                       0                    1.95      6.2400000000000002
    10   1                    1.95                       0      6.2400000000000002
    11   2                       0                       0      7.7999999999999998
    12   3                    1.95                    1.95      9.8670000000000009
    13   1                    1.95                    1.95      8.1899999999999995
    14   1                       0                    1.95      10.140000000000001
    15   1                    1.95                       0      10.140000000000001
    16   2                       0                       0      11.699999999999999
    17   3                    1.95                    1.95      13.766999999999999
    18   1                    1.95                    1.95                   12.09
    19   1                       0                    1.95      14.039999999999999
    20   1                    1.95                       0      14.039999999999999
    21   2                       0                       0                    15.6
    22   3                    1.95                    1.95      17.667000000000002
    23   1                    1.95                    1.95                   15.99
    24   1                       0                    1.95      17.939999999999998
    25   1                    1.95                       0      17.939999999999998
    26   2                       0                       0                    19.5
    27   3                    1.95                    1.95                  21.567
    28   1                    1.95                    1.95      19.890000000000001
    29   1                       0                    1.95                   21.84
    30   1                    1.95                       0                   21.84
    31   2                       0                       0      23.399999999999999
    32   3                    1.95                    1.95      25.466999999999999
    33   1                    1.95                    1.95      23.789999999999999
    34   1                       0                    1.95      25.739999999999998
    35   1                    1.95                       0      25.739999999999998
    36   2                       0                       0      27.300000000000001
    37   3                    1.95                    1.95      29.367000000000001
    38   1                    1.95                    1.95      27.690000000000001
    39   1                       0                    1.95      29.640000000000001
    40   1                    1.95                       0      29.640000000000001
    41   2                       0                       0      31.199999999999999
    42   3                    1.95                    1.95      33.266999999999996
    43   1                    1.95                    1.95                   31.59
    44   1                       0                    1.95      33.539999999999999
    45   1                    1.95                       0      33.539999999999999
    46   2                       0                       0      35.100000000000001
    47   3                    1.95                    1.95      37.167000000000002
    48   1                    1.95                    1.95      35.490000000000002
    49   1                       0                    1.95      37.439999999999998
    50   1                    1.95                       0      37.439999999999998
    51   2                       0                       0                      39
    52   3                    1.95                    1.95                  41.067
    53   1                    1.95                    1.95      39.390000000000001
    54   1                       0                    1.95      41.340000000000003
    55   1                    1.95                       0      41.340000000000003
    56   2                       0                       0      42.899999999999999
    57   3                    1.95                    1.95      44.966999999999999
    58   1                    1.95                    1.95      43.289999999999999
    59   1                       0                    1.95      45.239999999999995
    60   1                    1.95                       0      45.239999999999995
    61   2                       0                       0      46.799999999999997
    62   3                    1.95                    1.95      48.866999999999997
    63   1                    1.95                    1.95      47.189999999999998
    64   1                       0                    1.95      49.140000000000001
    65   1                    1.95                       0      49.140000000000001
    66   2                       0                       0      50.699999999999996
    67   3                    1.95                    1.95      52.766999999999996
    68   1                    1.95                    1.95      51.089999999999996
    69   1                       0                    1.95      53.039999999999992
    70   1                    1.95                       0      53.039999999999992
    71   2                       0                       0      54.600000000000001
    72   3                    1.95                    1.95      56.667000000000002
    73   1                    1.95                    1.95      54.990000000000002
    74   1                       0                    1.95      56.939999999999998
    75   1                    1.95                       0      56.939999999999998
    76   2                       0      3.8999999999999999                       0
    77   3                    1.95      5.8499999999999996      2.0670000000000002
    78   1                    1.95      5.8499999999999996     0.39000000000000001
    79   1                       0      5.8499999999999996      2.3399999999999999
    80   1                    1.95      3.8999999999999999      2.3399999999999999
    81   2                       0      3.8999999999999999      3.8999999999999999
    82   3                    1.95      5.8499999999999996      5.9670000000000005
    83   1                    1.95      5.8499999999999996                    4.29
    84   1                       0      5.8499999999999996      6.2400000000000002
    85   1                    1.95      3.8999999999999999      6.2400000000000002
    86   2                       0      3.8999999999999999      7.7999999999999998
    87   3                    1.95      5.8499999999999996      9.8670000000000009
    88   1                    1.95      5.8499999999999996      8.1899999999999995
    89   1                       0      5.8499999999999996      10.140000000000001
    90   1                    1.95      3.8999999999999999      10.140000000000001
    91   2                       0      3.8999999999999999      11.699999999999999
    92   3                    1.95      5.8499999999999996      13.766999999999999
    93   1                    1.95      5.8499999999999996                   12.09
    94   1                       0      5.8499999999999996      14.039999999999999
    95   1                    1.95      3.8999999999999999      14.039999999999999
    96   2                       0      3.8999999999999999                    15.6
    97   3                    1.95      5.8499999999999996      17.667000000000002
    98   1                    1.95      5.8499999999999996                   15.99
    99   1                       0      5.8499999999999996      17.939999999999998
   100   1                    1.95      3.8999999999999999      17.939999999999998
   101   2                       0      3.8999999999999999                    19.5
   102   3                    1.95      5.8499999999999996                  21.567
   103   1                    1.95      5.8499999999999996      19.890000000000001
   104   1                       0      5.8499999999999996                   21.84
   105   1                    1.95      3.8999999999999999                   21.84
   106   2                       0      3.8999999999999999      23.399999999999999
   107   3                    1.95      5.8499999999999996      25.466999999999999
   108   1                    1.95      5.8499999999999996      23.789999999999999
   109   1                       0      5.8499999999999996      25.739999999999998
   110   1                    1.95      3.8999999999999999      25.739999999999998
   111   2                       0      3.8999999999999999      27.300000000000001
   112   3                    1.95      5.8499999999999996      29.367000000000001
   113   1                    1.95      5.8499999999999996      27.690000000000001
   114   1                       0      5.8499999999999996      29.640000000000001
   115   1                    1.95      3.8999999999999999      29.640000000000001
   116   2                       0      3.8999999999999999      31.199999999999999
   117   3                    1.95      5.8499999999999996      33.266999999999996
   118   1                    1.95      5.8499999999999996                   31.59
   119   1                       0      5.8499999999999996      33.539999999999999
   120   1                    1.95      3.8999999999999999      33.539999999999999
   121   2                       0      3.8999999999999999      35.100000000000001
   122   3                    1.95      5.8499999999999996      37.167000000000002
   123   1                    1.95      5.8499999999999996      35.490000000000002
   124   1                       0      5.8499999999999996      37.439999999999998
   125   1                    1.95      3.8999999999999999      37.439999999999998
   126   2                       0      3.8999999999999999                      39
   127   3                    1.95      5.8499999999999996                  41.067
   128   1                    1.95      5.8499999999999996      39.390000000000001
   129   1                       0      5.8499999999999996      41.340000000000003
   130   1                    1.95      3.8999999999999999      41.340000000000003
   131   2                       0      3.8999999999999999      42.899999999999999
   132   3                    1.95      5.8499999999999996      44.966999999999999
   133   1                    1.95      5.8499999999999996      43.289999999999999
   134   1                       0      5.8499999999999996      45.239999999999995
   135   1                    1.95      3.8999999999999999      45.239999999999995
   136   2                       0      3.8999999999999999      46.799999999999997
   137   3                    1.95      5.8499999999999996      48.866999999999997
   138   1                    1.95      5.8499999999999996      47.189999999999998
   139   1                       0      5.8499999999999996      49.140000000000001
   140   1                    1.95      3.8999999999999999      49.140000000000001
   141   2                       0      3.8999999999999999      50.699999999999996
   142   3                    1.95      5.8499999999999996      52.766999999999996
   143   1                    1.95      5.8499999999999996      51.089999999999996
   144   1                       0      5.8499999999999996      53.039999999999992
   145   1                    1.95      3.8999999999999999      53.039999999999992
   146   2                       0      3.8999999999999999      54.600000000000001
   147   3                    1.95      5.8499999999999996      56.667000000000002
   148   1                    1.95      5.8499999999999996      54.990000000000002
   149   1                       0      5.8499999999999996      56.939999999999998
   150   1                    1.95      3.8999999999999999      56.939999999999998
   151   2                       0      7.7999999999999998                       0
   152   3                    1.95                    9.75      2.0670000000000002
   153   1                    1.95                    9.75     0.39000000000000001
   154   1                       0                    9.75      2.3399999999999999
   155   1                    1.95      7.7999999999999998      2.3399999999999999
   156   2                       0      7.7999999999999998      3.8999999999999999
   157   3                    1.95                    9.75      5.9670000000000005
   158   1                    1.95                    9.75                    4.29
   159   1                       0                    9.75      6.2400000000000002
   160   1                    1.95      7.7999999999999998      6.2400000000000002
   161   2                       0      7.7999999999999998      7.7999999999999998
   162   3                    1.95                    9.75      9.8670000000000009
   163   1                    1.95                    9.75      8.1899999999999995
   164   1                       0                    9.75      10.140000000000001
   165   1                    1.95      7.7999999999999998      10.140000000000001
   166   2                       0      7.7999999999999998      11.699999999999999
   167   3                    1.95                    9.75      13.766999999999999
   168   1                    1.95                    9.75                   12.09
   169   1                       0                    9.75      14.039999999999999
   170   1                    1.95      7.7999999999999998      14.039999999999999
   171   2                       0      7.7999999999999998                    15.6
   172   3                    1.95                    9.75      17.667000000000002
   173   1                    1.95                    9.75                   15.99
   174   1                       0                    9.75      17.939999999999998
   175   1                    1.95      7.7999999999999998      17.939999999999998
   176   2                       0      7.7999999999999998                    19.5
   177   3                    1.95                    9.75                  21.567
   178   1                    1.95                    9.75      19.890000000000001
   179   1                       0                    9.75                   21.84
   180   1                    1.95      7.7999999999999998                   21.84
   181   2                       0      7.7999999999999998      23.399999999999999
   182   3                    1.95                    9.75      25.466999999999999
   183   1                    1.95                    9.75      23.789999999999999
   184   1                       0                    9.75      25.739999999999998
   185   1                    1.95      7.7999999999999998      25.739999999999998
   186   2                       0      7.7999999999999998      27.300000000000001
   187   3                    1.95                    9.75      29.367000000000001
   188   1                    1.95                    9.75      27.690000000000001
   189   1                       0                    9.75      29.640000000000001
   190   1                    1.95      7.7999999999999998      29.640000000000001
   191   2                       0      7.7999999999999998      31.199999999999999
   192   3                    1.95                    9.75      33.266999999999996
   193   1                    1.95                    9.75                   31.59
   194   1                       0                    9.75      33.539999999999999
   195   1                    1.95      7.7999999999999998      33.539999999999999
   196   2                       0      7.7999999999999998      35.100000000000001
   197   3                    1.95                    9.75      37.167000000000002
   198   1                    1.95                    9.75      35.490000000000002
   199   1                       0                    9.75      37.439999999999998
   200   1                    1.95      7.7999999999999998      37.439999999999998
   201   2                       0      7.7999999999999998                      39
   202   3                    1.95                    9.75                  41.067
   203   1                    1.95                    9.75      39.390000000000001
   204   1                       0                    9.75      41.340000000000003
   205   1                    1.95      7.7999999999999998      41.340000000000003
   206   2                       0      7.7999999999999998      42.899999999999999
   207   3                    1.95                    9.75      44.966999999999999
   208   1                    1.95                    9.75      43.289999999999999
   209   1                       0                    9.75      45.239999999999995
   210   1                    1.95      7.7999999999999998      45.239999999999995
   211   2                       0      7.7999999999999998      46.799999999999997
   212   3                    1.95                    9.75      48.866999999999997
   213   1                    1.95                    9.75      47.189999999999998
   214   1                       0                    9.75      49.140000000000001
   215   1                    1.95      7.7999999999999998      49.140000000000001
   216   2                       0      7.7999999999999998      50.699999999999996
   217   3                    1.95                    9.75      52.766999999999996
   218   1                    1.95                    9.75      51.089999999999996
   219   1                       0                    9.75      53.039999999999992
   220   1                    1.95      7.7999999999999998      53.039999999999992
   221   2                       0      7.7999999999999998      54.600000000000001
   222   3                    1.95                    9.75      56.667000000000002
   223   1                    1.95                    9.75      54.990000000000002
   224   1                       0                    9.75      56.939999999999998
   225   1                    1.95      7.7999999999999998      56.939999999999998
   226   2                       0      11.699999999999999                       0
   227   3                    1.95      13.649999999999999      2.0670000000000002
   228   1                    1.95      13.649999999999999     0.39000000000000001
   229   1                       0      13.649999999999999      2.3399999999999999
   230   1                    1.95      11.699999999999999      2.3399999999999999
   231   2                       0      11.699999999999999      3.8999999999999999
   232   3                    1.95      13.649999999999999      5.9670000000000005
   233   1                    1.95      13.649999999999999                    4.29
   234   1                       0      13.649999999999999      6.2400000000000002
   235   1                    1.95      11.699999999999999      6.2400000000000002
   236   2                       0      11.699999999999999      7.7999999999999998
   237   3                    1.95      13.649999999999999      9.8670000000000009
   238   1                    1.95      13.649999999999999      8.1899999999999995
   239   1                       0      13.649999999999999      10.140000000000001
   240   1                    1.95      11.699999999999999      10.140000000000001
   241   2                       0      11.699999999999999      11.699999999999999
   242   3                    1.95      13.649999999999999      13.766999999999999
   243   1                    1.95      13.649999999999999                   12.09
   244   1                       0      13.649999999999999      14.039999999999999
   245   1                    1.95      11.699999999999999      14.039999999999999
   246   2                       0      11.699999999999999                    15.6
   247   3                    1.95      13.649999999999999      17.667000000000002
   248   1                    1.95      13.649999999999999                   15.99
   249   1                       0      13.649999999999999      17.939999999999998
   250   1                    1.95      11.699999999999999      17.939999999999998
   251   2                       0      11.699999999999999                    19.5
   252   3                    1.95      13.649999999999999                  21.567
   253   1                    1.95      13.649999999999999      19.890000000000001
   254   1                       0      13.649999999999999                   21.84
   255   1                    1.95      11.699999999999999                   21.84
   256   2                       0      11.699999999999999      23.399999999999999
   257   3                    1.95      13.649999999999999      25.466999999999999
   258   1                    1.95      13.649999999999999      23.789999999999999
   259   1                       0      13.649999999999999      25.739999999999998
   260   1                    1.95      11.699999999999999      25.739999999999998
   261   2                       0      11.699999999999999      27.300000000000001
   262   3                    1.95      13.649999999999999      29.367000000000001
   263   1                    1.95      13.649999999999999      27.690000000000001
   264   1                       0      13.649999999999999      29.640000000000001
   265   1                    1.95      11.699999999999999      29.640000000000001
   266   2                       0      11.699999999999999      31.199999999999999
   267   3                    1.95      13.649999999999999      33.266999999999996
   268   1                    1.95      13.649999999999999                   31.59
   269   1                       0      13.649999999999999      33.539999999999999
   270   1                    1.95      11.699999999999999      33.539999999999999
   271   2                       0      11.699999999999999      35.100000000000001
   272   3                    1.95      13.649999999999999      37.167000000000002
   273   1                    1.95      13.649999999999999      35.490000000000002
   274   1                       0      13.649999999999999      37.439999999999998
   275   1                    1.95      11.699999999999999      37.439999999999998
   276   2                       0      11.699999999999999                      39
   277   3                    1.95      13.649999999999999                  41.067
   278   1                    1.95      13.649999999999999      39.390000000000001
   279   1                       0      13.649999999999999      41.340000000000003
   280   1                    1.95      11.699999999999999      41.340000000000003
   281   2                       0      11.699999999999999      42.899999999999999
   282   3                    1.95      13.649999999999999      44.966999999999999
   283   1                    1.95      13.649999999999999      43.289999999999999
   284   1                       0      13.649999999999999      45.239999999999995
   285   1                    1.95      11.699999999999999      45.239999999999995
   286   2                       0      11.699999999999999      46.799999999999997
   287   3                    1.95      13.649999999999999      48.866999999999997
   288   1                    1.95      13.649999999999999      47.189999999999998
   289   1                       0      13.649999999999999      49.140000000000001
   290   1                    1.95      11.699999999999999      49.140000000000001
   291   2                       0      11.699999999999999      50.699999999999996
   292   3                    1.95      13.649999999999999      52.766999999999996
   293   1                    1.95      13.649999999999999      51.089999999999996
   294   1                       0      13.649999999999999      53.039999999999992
   295   1                    1.95      11.699999999999999      53.039999999999992
   296   2                       0      11.699999999999999      54.600000000000001
   297   3                    1.95      13.649999999999999      56.667000000000002
   298   1                    1.95      13.649999999999999      54.990000000000002
   299   1                       0      13.649999999999999      56.939999999999998
   300   1                    1.95      11.699999999999999      56.939999999999998
   301   2                       0                    15.6                       0
   302   3                    1.95      17.550000000000001      2.0670000000000002
   303   1                    1.95      17.550000000000001     0.39000000000000001
   304   1                       0      17.550000000000001      2.3399999999999999
   305   1                    1.95                    15.6      2.3399999999999999
   306   2                       0                    15.6      3.8999999999999999
   307   3                    1.95      17.550000000000001      5.9670000000000005
   308   1                    1.95      17.550000000000001                    4.29
   309   1                       0      17.550000000000001      6.2400000000000002
   310   1                    1.95                    15.6      6.2400000000000002
   311   2                       0                    15.6      7.7999999999999998
   312   3                    1.95      17.550000000000001      9.8670000000000009
   313   1                    1.95      17.550000000000001      8.1899999999999995
   314   1                       0      17.550000000000001      10.140000000000001
   315   1                    1.95                    15.6      10.140000000000001
   316   2                       0                    15.6      11.699999999999999
   317   3                    1.95      17.550000000000001      13.766999999999999
   318   1                    1.95      17.550000000000001                   12.09
   319   1                       0      17.550000000000001      14.039999999999999
   320   1                    1.95                    15.6      14.039999999999999
   321   2                       0                    15.6                    15.6
   322   3                    1.95      17.550000000000001      17.667000000000002
   323   1                    1.95      17.550000000000001                   15.99
   324   1                       0      17.550000000000001      17.939999999999998
   325   1                    1.95                    15.6      17.939999999999998
   326   2                       0                    15.6                    19.5
   327   3                    1.95      17.550000000000001                  21.567
   328   1                    1.95      17.550000000000001      19.890000000000001
   329   1                       0      17.550000000000001                   21.84
   330   1                    1.95                    15.6                   21.84
   331   2                       0                    15.6      23.399999999999999
   332   3                    1.95      17.550000000000001      25.466999999999999
   333   1                    1.95      17.550000000000001      23.789999999999999
   334   1                       0      17.550000000000001      25.739999999999998
   335   1                    1.95                    15.6      25.739999999999998
   336   2                       0                    15.6      27.300000000000001
   337   3                    1.95      17.550000000000001      29.367000000000001
   338   1                    1.95      17.550000000000001      27.690000000000001
   339   1                       0      17.550000000000001      29.640000000000001
   340   1                    1.95                    15.6      29.640000000000001
   341   2                       0                    15.6      31.199999999999999
   342   3                    1.95      17.550000000000001      33.266999999999996
   343   1                    1.95      17.550000000000001                   31.59
   344   1                       0      17.550000000000001      33.539999999999999
   345   1                    1.95                    15.6      33.539999999999999
   346   2                       0                    15.6      35.100000000000001
   347   3                    1.95      17.550000000000001      37.167000000000002
   348   1                    1.95      17.550000000000001      35.490000000000002
   349   1                       0      17.550000000000001      37.439999999999998
   350   1                    1.95                    15.6      37.439999999999998
   351   2                       0                    15.6                      39
   352   3                    1.95      17.550000000000001                  41.067
   353   1                    1.95      17.550000000000001      39.390000000000001
   354   1                       0      17.550000000000001      41.340000000000003
   355   1                    1.95                    15.6      41.340000000000003
   356   2                       0                    15.6      42.899999999999999
   357   3                    1.95      17.550000000000001      44.966999999999999
   358   1                    1.95      17.550000000000001      43.289999999999999
   359   1                       0      17.550000000000001      45.239999999999995