L12x12x12_tetra/conf.lmp (written by ASE) 

8640 	 atoms 
3  atom types
0.0      46.920000000000002  xlo xhi
0.0      46.920000000000002  ylo yhi
0.0      49.199999999999996  zlo zhi


Atoms 

     1   2                       0                       0                       0
     2   3      1.9550000000000001      1.9550000000000001                   2.173
     3   1      1.9550000000000001      1.9550000000000001     0.40999999999999998
     4   1                       0      1.9550000000000001      2.4599999999999995
     5   1      1.9550000000000001                       0      2.4599999999999995
     6   2                       0                       0      4.0999999999999996
     7   3      1.9550000000000001      1.9550000000000001      6.2729999999999997
     8   1      1.9550000000000001      1.9550000000000001      4.5099999999999998
     9   1                       0      1.9550000000000001      6.5599999999999987
    10   1      1.9550000000000001                       0      6.5599999999999987
    11   2                       0                       0      8.1999999999999993
    12   3      1.9550000000000001      1.9550000000000001      10.372999999999999
    13   1      1.9550000000000001      1.9550000000000001      8.6099999999999994
    14   1                       0      1.9550000000000001      10.659999999999998
    15   1      1.9550000000000001                       0      10.659999999999998
    16   2                       0                       0      12.299999999999999
    17   3      1.9550000000000001      1.9550000000000001      14.472999999999999
    18   1      1.9550000000000001      1.9550000000000001      12.709999999999999
    19   1                       0      1.9550000000000001      14.759999999999998
    20   1      1.9550000000000001                       0      14.759999999999998
    21   2                       0                       0      16.399999999999999
    22   3      1.9550000000000001      1.9550000000000001                  18.573
    23   1      1.9550000000000001      1.9550000000000001      16.809999999999999
    24   1                       0      1.9550000000000001      18.859999999999999
    25   1      1.9550000000000001                       0      18.859999999999999
    26   2                       0                       0                    20.5
    27   3      1.9550000000000001      1.9550000000000001      22.673000000000002
    28   1      1.9550000000000001      1.9550000000000001                   20.91
    29   1                       0      1.9550000000000001      22.960000000000001
    30   1      1.9550000000000001                       0      22.960000000000001
    31   2                       0                       0      24.599999999999998
    32   3      1.9550000000000001      1.9550000000000001      26.772999999999996
    33   1      1.9550000000000001      1.9550000000000001      25.009999999999998
    34   1                       0      1.9550000000000001      27.059999999999999
    35   1      1.9550000000000001                       0      27.059999999999999
    36   2                       0                       0      28.699999999999996
    37   3      1.9550000000000001      1.9550000000000001      30.872999999999998
    38   1      1.9550000000000001      1.9550000000000001      29.109999999999996
    39   1                       0      1.9550000000000001      31.159999999999997
    40   1      1.9550000000000001                       0      31.159999999999997
    41   2                       0                       0      32.799999999999997
    42   3      1.9550000000000001      1.9550000000000001      34.972999999999999
    43   1      1.9550000000000001      1.9550000000000001      33.209999999999994
    44   1                       0      1.9550000000000001      35.259999999999998
    45   1      1.9550000000000001                       0      35.259999999999998
    46   2                       0                       0      36.899999999999999
    47   3      1.9550000000000001      1.9550000000000001                  39.073
    48   1      1.9550000000000001      1.9550000000000001      37.309999999999995
    49   1                       0      1.9550000000000001      39.359999999999999
    50   1      1.9550000000000001                       0      39.359999999999999
    51   2                       0                       0                      41
    52   3      1.9550000000000001      1.9550000000000001      43.173000000000002
    53   1      1.9550000000000001      1.9550000000000001      41.409999999999997
    54   1                       0      1.9550000000000001      43.460000000000001
    55   1      1.9550000000000001                       0      43.460000000000001
    56   2                       0                       0      45.099999999999994
    57   3      1.9550000000000001      1.9550000000000001      47.272999999999996
    58   1      1.9550000000000001      1.9550000000000001      45.509999999999991
    59   1                       0      1.9550000000000001      47.559999999999995
    60   1      1.9550000000000001                       0      47.559999999999995
    61   2                       0      3.9100000000000001                       0
    62   3      1.9550000000000001      5.8650000000000002                   2.173
    63   1      1.9550000000000001      5.8650000000000002     0.40999999999999998
    64   1                       0      5.8650000000000002      2.4599999999999995
    65   1      1.9550000000000001      3.9100000000000001      2.4599999999999995
    66   2                       0      3.9100000000000001      4.0999999999999996
    67   3      1.9550000000000001      5.8650000000000002      6.2729999999999997
    68   1      1.9550000000000001      5.8650000000000002      4.5099999999999998
    69   1                       0      5.8650000000000002      6.5599999999999987
    70   1      1.9550000000000001      3.9100000000000001      6.5599999999999987
    71   2                       0      3.9100000000000001      8.1999999999999993
    72   3      1.9550000000000001      5.8650000000000002      10.372999999999999
    73   1      1.9550000000000001      5.8650000000000002      8.6099999999999994
    74   1                       0      5.8650000000000002      10.659999999999998
    75   1      1.9550000000000001      3.9100000000000001      10.659999999999998
    76   2                       0      3.9100000000000001      12.299999999999999
    77   3      1.9550000000000001      5.8650000000000002      14.472999999999999
    78   1      1.9550000000000001      5.8650000000000002      12.709999999999999
    79   1                       0      5.8650000000000002      14.759999999999998
    80   1      1.9550000000000001      3.9100000000000001      14.759999999999998
    81   2                       0      3.9100000000000001      16.399999999999999
    82   3      1.9550000000000001      5.8650000000000002                  18.573
    83   1      1.9550000000000001      5.8650000000000002      16.809999999999999
    84   1                       0      5.8650000000000002      18.859999999999999
    85   1      1.9550000000000001      3.9100000000000001      18.859999999999999
    86   2                       0      3.9100000000000001                    20.5
    87   3      1.9550000000000001      5.8650000000000002      22.673000000000002
    88   1      1.9550000000000001      5.8650000000000002                   20.91
    89   1                       0      5.8650000000000002      22.960000000000001
    90   1      1.9550000000000001      3.9100000000000001      22.960000000000001
    91   2                       0      3.9100000000000001      24.599999999999998
    92   3      1.9550000000000001      5.8650000000000002      26.772999999999996
    93   1      1.9550000000000001      5.8650000000000002      25.009999999999998
    94   1                       0      5.8650000000000002      27.059999999999999
    95   1      1.9550000000000001      3.9100000000000001      27.059999999999999
    96   2                       0      3.9100000000000001      28.699999999999996
    97   3      1.9550000000000001      5.8650000000000002      30.872999999999998
    98   1      1.9550000000000001      5.8650000000000002      29.109999999999996
    99   1                       0      5.8650000000000002      31.159999999999997
   100   1      1.9550000000000001      3.9100000000000001      31.159999999999997
   101   2                       0      3.9100000000000001      32.799999999999997
   102   3      1.9550000000000001      5.8650000000000002      34.972999999999999
   103   1      1.9550000000000001      5.8650000000000002      33.209999999999994
   104   1                       0      5.8650000000000002      35.259999999999998
   105   1      1.9550000000000001      3.9100000000000001      35.259999999999998
   106   2                       0      3.9100000000000001      36.899999999999999
   107   3      1.9550000000000001      5.8650000000000002                  39.073
   108   1      1.9550000000000001      5.8650000000000002      37.309999999999995
   109   1                       0      5.8650000000000002      39.359999999999999
   110   1      1.9550000000000001      3.9100000000000001      39.359999999999999
   111   2                       0      3.9100000000000001                      41
   112   3      1.9550000000000001      5.8650000000000002      43.173000000000002
   113   1      1.9550000000000001      5.8650000000000002      41.409999999999997
   114   1                       0      5.8650000000000002      43.460000000000001
   115   1      1.9550000000000001      3.9100000000000001      43.460000000000001
   116   2                       0      3.9100000000000001      45.099999999999994
   117   3      1.9550000000000001      5.8650000000000002      47.272999999999996
   118   1      1.9550000000000001      5.8650000000000002      45.509999999999991
   119   1                       0      5.8650000000000002      47.559999999999995
   120   1      1.9550000000000001      3.9100000000000001      47.559999999999995
   121   2                       0      7.8200000000000003                       0
   122   3      1.9550000000000001      9.7750000000000004                   2.173
   123   1      1.9550000000000001      9.7750000000000004     0.40999999999999998
   124   1                       0      9.7750000000000004      2.4599999999999995
   125   1      1.9550000000000001      7.8200000000000003      2.4599999999999995
   126   2                       0      7.8200000000000003      4.0999999999999996
   127   3      1.9550000000000001      9.7750000000000004      6.2729999999999997
   128   1      1.9550000000000001      9.7750000000000004      4.5099999999999998
   129   1                       0      9.7750000000000004      6.5599999999999987
   130   1      1.9550000000000001      7.8200000000000003      6.5599999999999987
   131   2                       0      7.8200000000000003      8.1999999999999993
   132   3      1.9550000000000001      9.7750000000000004      10.372999999999999
   133   1      1.9550000000000001      9.7750000000000004      8.6099999999999994
   134   1                       0      9.7750000000000004      10.659999999999998
   135   1      1.9550000000000001      7.8200000000000003      10.659999999999998
   136   2                       0      7.8200000000000003      12.299999999999999
   137   3      1.9550000000000001      9.7750000000000004      14.472999999999999
   138   1      1.9550000000000001      9.7750000000000004      12.709999999999999
   139   1                       0      9.7750000000000004      14.759999999999998
   140   1      1.9550000000000001      7.8200000000000003      14.759999999999998
   141   2                       0      7.8200000000000003      16.399999999999999
   142   3      1.9550000000000001      9.7750000000000004                  18.573
   143   1      1.9550000000000001      9.7750000000000004      16.809999999999999
   144   1                       0      9.7750000000000004      18.859999999999999
   145   1      1.9550000000000001      7.8200000000000003      18.859999999999999
   146   2                       0      7.8200000000000003                    20.5
   147   3      1.9550000000000001      9.7750000000000004      22.673000000000002
   148   1      1.9550000000000001      9.7750000000000004                   20.91
   149   1                       0      9.7750000000000004      22.960000000000001
   150   1      1.9550000000000001      7.8200000000000003      22.960000000000001
   151   2                       0      7.8200000000000003      24.599999999999998
   152   3      1.9550000000000001      9.7750000000000004      26.772999999999996
   153   1      1.9550000000000001      9.7750000000000004      25.009999999999998
   154   1                       0      9.7750000000000004      27.059999999999999
   155   1      1.9550000000000001      7.8200000000000003      27.059999999999999
   156   2                       0      7.8200000000000003      28.699999999999996
   157   3      1.9550000000000001      9.7750000000000004      30.872999999999998
   158   1      1.9550000000000001      9.7750000000000004      29.109999999999996
   159   1                       0      9.7750000000000004      31.159999999999997
   160   1      1.9550000000000001      7.8200000000000003      31.159999999999997
   161   2                       0      7.8200000000000003      32.799999999999997
   162   3      1.9550000000000001      9.7750000000000004      34.972999999999999
   163   1      1.9550000000000001      9.7750000000000004      33.209999999999994
   164   1                       0      9.7750000000000004      35.259999999999998
   165   1      1.9550000000000001      7.8200000000000003      35.259999999999998
   166   2                       0      7.8200000000000003      36.899999999999999
   167   3      1.9550000000000001      9.7750000000000004                  39.073
   168   1      1.9550000000000001      9.7750000000000004      37.309999999999995
   169   1                       0      9.7750000000000004      39.359999999999999
   170   1      1.9550000000000001      7.8200000000000003      39.359999999999999
   171   2                       0      7.8200000000000003                      41
   172   3      1.9550000000000001      9.7750000000000004      43.173000000000002
   173   1      1.9550000000000001      9.7750000000000004      41.409999999999997
   174   1                       0      9.7750000000000004      43.460000000000001
   175   1      1.9550000000000001      7.8200000000000003      43.460000000000001
   176   2                       0      7.8200000000000003      45.099999999999994
   177   3      1.9550000000000001      9.7750000000000004      47.272999999999996
   178   1      1.9550000000000001      9.7750000000000004      45.509999999999991
   179   1                       0      9.7750000000000004      47.559999999999995
   180   1      1.9550000000000001      7.8200000000000003      47.559999999999995
   181   2                       0                   11.73                       0
   182   3      1.9550000000000001                  13.685                   2.173
   183   1      1.9550000000000001                  13.685     0.40999999999999998
   184   1                       0                  13.685      2.4599999999999995
   185   1      1.9550000000000001                   11.73      2.4599999999999995
   186   2                       0                   11.73      4.0999999999999996
   187   3      1.9550000000000001                  13.685      6.2729999999999997
   188   1      1.9550000000000001                  13.685      4.5099999999999998
   189   1                       0                  13.685      6.5599999999999987
   190   1      1.9550000000000001                   11.73      6.5599999999999987
   191   2                       0                   11.73      8.1999999999999993
   192   3      1.9550000000000001                  13.685      10.372999999999999
   193   1      1.9550000000000001                  13.685      8.6099999999999994
   194   1                       0                  13.685      10.659999999999998
   195   1      1.9550000000000001                   11.73      10.659999999999998
   196   2                       0                   11.73      12.299999999999999
   197   3      1.9550000000000001                  13.685      14.472999999999999
   198   1      1.9550000000000001                  13.685      12.709999999999999
   199   1                       0                  13.685      14.759999999999998
   200   1      1.9550000000000001                   11.73      14.759999999999998
   201   2                       0                   11.73      16.399999999999999
   202   3      1.9550000000000001                  13.685                  18.573
   203   1      1.9550000000000001                  13.685      16.809999999999999
   204   1                       0                  13.685      18.859999999999999
   205   1      1.9550000000000001                   11.73      18.859999999999999
   206   2                       0                   11.73                    20.5
   207   3      1.9550000000000001                  13.685      22.673000000000002
   208   1      1.9550000000000001                  13.685                   20.91
   209   1                       0                  13.685      22.960000000000001
   210   1      1.9550000000000001                   11.73      22.960000000000001
   211   2                       0                   11.73      24.599999999999998
   212   3      1.9550000000000001                  13.685      26.772999999999996
   213   1      1.9550000000000001                  13.685      25.009999999999998
   214   1                       0                  13.685      27.059999999999999
   215   1      1.9550000000000001                   11.73      27.059999999999999
   216   2                       0                   11.73      28.699999999999996
   217   3      1.9550000000000001                  13.685      30.872999999999998
   218   1      1.9550000000000001                  13.685      29.109999999999996
   219   1                       0                  13.685      31.159999999999997
   220   1      1.9550000000000001                   11.73      31.159999999999997
   221   2                       0                   11.73      32.799999999999997
   222   3      1.9550000000000001                  13.685      34.972999999999999
   223   1      1.9550000000000001                  13.685      33.209999999999994
   224   1                       0                  13.685      35.259999999999998
   225   1      1.9550000000000001                   11.73      35.259999999999998
   226   2                       0                   11.73      36.899999999999999
   227   3      1.9550000000000001                  13.685                  39.073
   228   1      1.9550000000000001                  13.685      37.309999999999995
   229   1                       0                  13.685      39.359999999999999
   230   1      1.9550000000000001                   11.73      39.359999999999999
   231   2                       0                   11.73                      41
   232   3      1.9550000000000001                  13.685      43.173000000000002
   233   1      1.9550000000000001                  13.685      41.409999999999997
   234   1                       0                  13.685      43.460000000000001
   235   1      1.9550000000000001                   11.73      43.460000000000001
   236   2                       0                   11.73      45.099999999999994
   237   3      1.9550000000000001                  13.685      47.272999999999996
   238   1      1.9550000000000001                  13.685      45.509999999999991
   239   1                       0                  13.685      47.559999999999995
   240   1      1.9550000000000001                   11.73      47.559999999999995
   241   2                       0      15.640000000000001                       0
   242   3      1.9550000000000001      17.594999999999999                   2.173
   243   1      1.9550000000000001      17.594999999999999     0.40999999999999998
   244   1                       0      17.594999999999999      2.4599999999999995
   245   1      1.9550000000000001      15.640000000000001      2.4599999999999995
   246   2                       0      15.640000000000001      4.0999999999999996
   247   3      1.9550000000000001      17.594999999999999      6.2729999999999997
   248   1      1.9550000000000001      17.594999999999999      4.5099999999999998
   249   1                       0      17.594999999999999      6.5599999999999987
   250   1      1.9550000000000001      15.640000000000001      6.5599999999999987
   251   2                       0      15.640000000000001      8.1999999999999993
   252   3      1.9550000000000001      17.594999999999999      10.372999999999999
   253   1      1.9550000000000001      17.594999999999999      8.6099999999999994
   254   1                       0      17.594999999999999      10.659999999999998
   255   1      1.9550000000000001      15.640000000000001      10.659999999999998
   256   2                       0      15.640000000000001      12.299999999999999
   257   3      1.9550000000000001      17.594999999999999      14.472999999999999
   258   1      1.9550000000000001      17.594999999999999      12.709999999999999
   259   1                       0      17.594999999999999      14.759999999999998
   260   1      1.9550000000000001      15.640000000000001      14.759999999999998
   261   2                       0      15.640000000000001      16.399999999999999
   262   3      1.9550000000000001      17.594999999999999                  18.573
   263   1      1.9550000000000001      17.594999999999999      16.809999999999999
   264   1                       0      17.594999999999999      18.859999999999999
   265   1      1.9550000000000001      15.640000000000001      18.859999999999999
   266   2                       0      15.640000000000001                    20.5
   267   3      1.9550000000000001      17.594999999999999      22.673000000000002
   268   1      1.9550000000000001      17.594999999999999                   20.91
   269   1                       0      17.594999999999999      22.960000000000001
   270   1      1.9550000000000001      15.640000000000001      22.960000000000001
   271   2                       0      15.640000000000001      24.599999999999998
   272   3      1.9550000000000001      17.594999999999999      26.772999999999996
   273   1      1.9550000000000001      17.594999999999999      25.009999999999998
   274   1                       0      17.594999999999999      27.059999999999999
   275   1      1.9550000000000001      15.640000000000001      27.059999999999999
   276   2                       0      15.640000000000001      28.699999999999996
   277   3      1.9550000000000001      17.594999999999999      30.872999999999998
   278   1      1.9550000000000001      17.594999999999999      29.109999999999996
   279   1                       0      17.594999999999999      31.159999999999997
   280   1      1.9550000000000001      15.640000000000001      31.159999999999997
   281   2                       0      15.640000000000001      32.799999999999997
   282   3      1.9550000000000001      17.594999999999999      34.972999999999999
   283   1      1.9550000000000001      17.594999999999999      33.209999999999994
   284   1                       0      17.594999999999999      35.259999999999998
   285   1      1.9550000000000001      15.640000000000001      35.259999999999998
   286   2                       0      15.640000000000001      36.899999999999999
   287   3      1.9550000000000001      17.594999999999999                  39.073
   288   1      1.9550000000000001      17.594999999999999      37.309999999999995
   289   1                       0      17.594999999999999      39.359999999999999
   290   1      1.9550000000000001      15.640000000000001      39.359999999999999
   291   2                       0      15.640000000000001                      41
   292   3      1.9550000000000001      17.594999999999999      43.173000000000002
   293   1      1.9550000000000001      17.594999999999999      41.409999999999997
   294   1                       0      17.594999999999999      43.460000000000001
   295   1      1.9550000000000001      15.640000000000001      43.460000000000001
   296   2                       0      15.640000000000001      45.099999999999994
   297   3      1.9550000000000001      17.594999999999999      47.272999999999996
   298   1      1.9550000000000001      17.594999999999999      45.509999999999991
   299   1                       0      17.594999999999999      47.559999999999995
   300   1      1.9550000000000001      15.640000000000001      47.559999999999995
   301   2                       0      19.550000000000001                       0
   302   3      1.9550000000000001      21.505000000000003                   2.173
   303   1      1.9550000000000001      21.505000000000003     0.40999999999999998
   304   1                       0      21.505000000000003      2.4599999999999995
   305   1      1.9550000000000001      19.550000000000001      2.4599999999999995
   306   2                       0      19.550000000000001      4.0999999999999996
   307   3      1.9550000000000001      21.505000000000003      6.2729999999999997
   308   1      1.9550000000000001      21.505000000000003      4.5099999999999998
   309   1                       0      21.505000000000003      6.5599999999999987
   310   1      1.9550000000000001      19.550000000000001      6.5599999999999987
   311   2                       0      19.550000000000001      8.1999999999999993
   312   3      1.9550000000000001      21.505000000000003      10.372999999999999
   313   1      1.9550000000000001      21.505000000000003      8.6099999999999994
   314   1                       0      21.505000000000003      10.659999999999998
   315   1      1.9550000000000001      19.550000000000001      10.659999999999998
   316   2                       0      19.550000000000001      12.299999999999999
   317   3      1.9550000000000001      21.505000000000003      14.472999999999999
   318   1      1.9550000000000001      21.505000000000003      12.709999999999999
   319   1                       0      21.505000000000003      14.759999999999998
   320   1      1.9550000000000001      19.550000000000001      14.759999999999998
   321   2                       0      19.550000000000001      16.399999999999999
   322   3      1.9550000000000001      21.505000000000003                  18.573
   323   1      1.9550000000000001      21.505000000000003      16.809999999999999
   324   1                       0      21.505000000000003      18.859999999999999
   325   1      1.9550000000000001      19.550000000000001      18.859999999999999
   326   2                       0      19.550000000000001                    20.5
   327   3      1.9550000000000001      21.505000000000003      22.673000000000002
   328   1      1.9550000000000001      21.505000000000003                   20.91
   329   1                       0      21.505000000000003      22.960000000000001
   330   1      1.9550000000000001      19.550000000000001      22.960000000000001
   331   2                       0      19.550000000000001      24.599999999999998
   332   3      1.9550000000000001      21.505000000000003      26.772999999999996
   333   1      1.9550000000000001      21.505000000000003      25.009999999999998
   334   1                       0      21.505000000000003      27.059999999999999
   335   1      1.9550000000000001      19.550000000000001      27.059999999999999
   336   2                       0      19.550000000000001      28.699999999999996
   337   3      1.9550000000000001      21.505000000000003      30.872999999999998
   338   1      1.9550000000000001      21.505000000000003      29.109999999999996
   339   1                       0      21.505000000000003      31.159999999999997
   340   1      1.9550000000000001      19.550000000000001      31.159999999999997
   341   2                       0      19.550000000000001      32.799999999999997
   342   3      1.9550000000000001      21.505000000000003      34.972999999999999
   343   1      1.9550000000000001      21.505000000000003      33.209999999999994
   344   1                       0      21.505000000000003      35.259999999999998
   345   1      1.9550000000000001      19.550000000000001      35.259999999999998
   346   2                       0      19.550000000000001      36.899999999999999
   347   3      1.9550000000000001      21.505000000000003                  39.073
   348   1      1.9550000000000001      21.505000000000003      37.309999999999995
   349   1                       0      21.505000000000003      39.359999999999999
   350   1      1.9550000000000001      19.550000000000001      39.359999999999999
   351   2                       0      19.550000000000001                      41
   352   3      1.9550000000000001      21.505000000000003      43.173000000000002
   353   1      1.9550000000000001      21.505000000000003      41.409999999999997
   354   1                       0      21.505000000000003      43.460000000000001
   355   1      1.9550000000000001      19.550000000000001      43.460000000000001
   356   2                       0      19.550000000000001      45.099999999999994
   357   3      1.9550000000000001      21.505000000000003      47.272999999999996
   358   1      1.9550000000000001      21.505000000000003      45.509999999999991
   359   1                       0      21.505000000000003      47.559999999999995