 CRYSTAL
 PRIMVEC
    3.920000000    0.000000000    0.000000000
    0.000000000    3.920000000    0.000000000
    0.000000000    0.000000000    3.920000000
 PRIMCOORD
           5           1
Pb        0.000000000    0.000000000    0.000000000
Ti        1.960000000    1.960000000    1.960000000
O         1.960000000    1.960000000    0.000000000
O         0.000000000    1.960000000    1.960000000
O         1.960000000    0.000000000    1.960000000
BEGIN_BLOCK_DATAGRID_3D
3D_PWSCF
BEGIN_DATAGRID_3D_UNKNOWN
          46          46          46
  0.000000  0.000000  0.000000
    3.920000    0.000000    0.000000
    0.000000    3.920000    0.000000
    0.000000    0.000000    3.920000
  0.808617E-02  0.104372E-01  0.357099E-01  0.115891E+00  0.254156E+00  0.408301E+00
  0.516004E+00  0.536719E+00  0.474199E+00  0.365759E+00  0.253683E+00  0.163812E+00
  0.102365E+00  0.642294E-01  0.416079E-01  0.282195E-01  0.200539E-01  0.148545E-01
  0.114455E-01  0.921049E-02  0.778478E-02  0.693620E-02  0.653661E-02  0.653661E-02
  0.693620E-02  0.778478E-02  0.921049E-02  0.114455E-01  0.148545E-01  0.200539E-01
  0.282195E-01  0.416079E-01  0.642294E-01  0.102365E+00  0.163812E+00  0.253683E+00
  0.365759E+00  0.474199E+00  0.536719E+00  0.516004E+00  0.408301E+00  0.254156E+00
  0.115891E+00  0.357099E-01  0.104372E-01  0.808617E-02  0.104372E-01  0.161571E-01
  0.489469E-01  0.135185E+00  0.273783E+00  0.422304E+00  0.521580E+00  0.534962E+00
  0.468470E+00  0.359388E+00  0.248586E+00  0.160446E+00  0.100398E+00  0.631579E-01
  0.410451E-01  0.279314E-01  0.199145E-01  0.147990E-01  0.114404E-01  0.923718E-02
  0.783136E-02  0.699444E-02  0.660024E-02  0.660024E-02  0.699444E-02  0.783136E-02
  0.923718E-02  0.114404E-01  0.147990E-01  0.199145E-01  0.279314E-01  0.410451E-01
  0.631579E-01  0.100398E+00  0.160446E+00  0.248586E+00  0.359388E+00  0.468470E+00
  0.534962E+00  0.521580E+00  0.422304E+00  0.273783E+00  0.135185E+00  0.489469E-01
  0.161571E-01  0.104372E-01  0.357099E-01  0.489469E-01  0.978863E-01  0.195175E+00
  0.329695E+00  0.459391E+00  0.533993E+00  0.527164E+00  0.450465E+00  0.340461E+00
  0.233796E+00  0.150790E+00  0.947770E-01  0.600975E-01  0.394364E-01  0.271088E-01
  0.195192E-01  0.146466E-01  0.114354E-01  0.932614E-02  0.798011E-02  0.717866E-02
  0.680102E-02  0.680102E-02  0.717866E-02  0.798011E-02  0.932614E-02  0.114354E-01
  0.146466E-01  0.195192E-01  0.271088E-01  0.394364E-01  0.600975E-01  0.947770E-01
  0.150790E+00  0.233796E+00  0.340461E+00  0.450465E+00  0.527164E+00  0.533993E+00
  0.459391E+00  0.329695E+00  0.195175E+00  0.978863E-01  0.489469E-01  0.357099E-01
  0.115891E+00  0.135185E+00  0.195175E+00  0.293634E+00  0.409843E+00  0.505005E+00
  0.541839E+00  0.507268E+00  0.418663E+00  0.309895E+00  0.210853E+00  0.136094E+00
  0.862814E-01  0.554741E-01  0.370054E-01  0.258722E-01  0.189388E-01  0.144456E-01
  0.114707E-01  0.951613E-02  0.827102E-02  0.753071E-02  0.718203E-02  0.718203E-02
  0.753071E-02  0.827102E-02  0.951613E-02  0.114707E-01  0.144456E-01  0.189388E-01
  0.258722E-01  0.370054E-01  0.554741E-01  0.862814E-01  0.136094E+00  0.210853E+00
  0.309895E+00  0.418663E+00  0.507268E+00  0.541839E+00  0.505005E+00  0.409843E+00
  0.293634E+00  0.195175E+00  0.135185E+00  0.115891E+00  0.254156E+00  0.273783E+00
  0.329695E+00  0.409843E+00  0.489602E+00  0.537636E+00  0.531233E+00  0.469498E+00
  0.372928E+00  0.270004E+00  0.182283E+00  0.118196E+00  0.760126E-01  0.498902E-01
  0.340773E-01  0.244079E-01  0.182953E-01  0.142922E-01  0.116344E-01  0.989484E-02
  0.879359E-02  0.814212E-02  0.783610E-02  0.783610E-02  0.814212E-02  0.879359E-02
  0.989484E-02  0.116344E-01  0.142922E-01  0.182953E-01  0.244079E-01  0.340773E-01
  0.498902E-01  0.760126E-01  0.118196E+00  0.182283E+00  0.270004E+00  0.372928E+00
  0.469498E+00  0.531233E+00  0.537636E+00  0.489602E+00  0.409843E+00  0.329695E+00
  0.273783E+00  0.254156E+00  0.408301E+00  0.422304E+00  0.459391E+00  0.505005E+00
  0.537636E+00  0.536613E+00  0.492461E+00  0.412431E+00  0.316163E+00  0.224703E+00
  0.151279E+00  0.991713E-01  0.651667E-01  0.440049E-01  0.310236E-01  0.229457E-01
  0.177556E-01  0.143288E-01  0.120611E-01  0.105944E-01  0.967925E-02  0.914438E-02
  0.889495E-02  0.889495E-02  0.914438E-02  0.967925E-02  0.105944E-01  0.120611E-01
  0.143288E-01  0.177556E-01  0.229457E-01  0.310236E-01  0.440049E-01  0.651667E-01
  0.991713E-01  0.151279E+00  0.224703E+00  0.316163E+00  0.412431E+00  0.492461E+00
  0.536613E+00  0.537636E+00  0.505005E+00  0.459391E+00  0.422304E+00  0.408301E+00
  0.516004E+00  0.521580E+00  0.533993E+00  0.541839E+00  0.531233E+00  0.492461E+00
  0.425563E+00  0.340975E+00  0.254292E+00  0.178823E+00  0.121057E+00  0.809259E-01
  0.548159E-01  0.384209E-01  0.282006E-01  0.217223E-01  0.175046E-01  0.147215E-01
  0.129113E-01  0.117746E-01  0.110895E-01  0.107017E-01  0.105247E-01  0.105247E-01
  0.107017E-01  0.110895E-01  0.117746E-01  0.129113E-01  0.147215E-01  0.175046E-01
  0.217223E-01  0.282006E-01  0.384209E-01  0.548159E-01  0.809259E-01  0.121057E+00
  0.178823E+00  0.254292E+00  0.340975E+00  0.425563E+00  0.492461E+00  0.531233E+00
  0.541839E+00  0.533993E+00  0.521580E+00  0.516004E+00  0.536719E+00  0.534962E+00
  0.527164E+00  0.507268E+00  0.469498E+00  0.412431E+00  0.340975E+00  0.264856E+00
  0.194469E+00  0.136851E+00  0.941739E-01  0.648708E-01  0.457501E-01  0.335986E-01
  0.258982E-01  0.209489E-01  0.177278E-01  0.156572E-01  0.143857E-01  0.136559E-01
  0.132660E-01  0.130733E-01  0.129949E-01  0.129949E-01  0.130733E-01  0.132660E-01
  0.136559E-01  0.143857E-01  0.156572E-01  0.177278E-01  0.209489E-01  0.258982E-01
  0.335986E-01  0.457501E-01  0.648708E-01  0.941739E-01  0.136851E+00  0.194469E+00
  0.264856E+00  0.340975E+00  0.412431E+00  0.469498E+00  0.507268E+00  0.527164E+00
  0.534962E+00  0.536719E+00  0.474199E+00  0.468470E+00  0.450465E+00  0.418663E+00
  0.372928E+00  0.316163E+00  0.254292E+00  0.194469E+00  0.142620E+00  0.101795E+00
  0.721004E-01  0.517693E-01  0.384092E-01  0.298192E-01  0.243263E-01  0.208228E-01
  0.186467E-01  0.174009E-01  0.168010E-01  0.166078E-01  0.166255E-01  0.167122E-01
  0.167778E-01  0.167778E-01  0.167122E-01  0.166255E-01  0.166078E-01  0.168010E-01
  0.174009E-01  0.186467E-01  0.208228E-01  0.243263E-01  0.298192E-01  0.384092E-01
  0.517693E-01  0.721004E-01  0.101795E+00  0.142620E+00  0.194469E+00  0.254292E+00
  0.316163E+00  0.372928E+00  0.418663E+00  0.450465E+00  0.468470E+00  0.474199E+00
  0.365759E+00  0.359388E+00  0.340461E+00  0.309895E+00  0.270004E+00  0.224703E+00
  0.178823E+00  0.136851E+00  0.101795E+00  0.747426E-01  0.551946E-01  0.417789E-01
  0.329136E-01  0.272143E-01  0.236595E-01  0.215864E-01  0.205833E-01  0.203547E-01
  0.206352E-01  0.211780E-01  0.217755E-01  0.222693E-01  0.225471E-01  0.225471E-01
  0.222693E-01  0.217755E-01  0.211780E-01  0.206352E-01  0.203547E-01  0.205833E-01
  0.215864E-01  0.236595E-01  0.272143E-01  0.329136E-01  0.417789E-01  0.551946E-01
  0.747426E-01  0.101795E+00  0.136851E+00  0.178823E+00  0.224703E+00  0.270004E+00
  0.309895E+00  0.340461E+00  0.359388E+00  0.365759E+00  0.253683E+00  0.248586E+00
  0.233796E+00  0.210853E+00  0.182283E+00  0.151279E+00  0.121057E+00  0.941739E-01
  0.721004E-01  0.551946E-01  0.429958E-01  0.346333E-01  0.291770E-01  0.258505E-01
  0.241016E-01  0.235635E-01  0.239600E-01  0.250247E-01  0.264762E-01  0.280407E-01
  0.294756E-01  0.305744E-01  0.311724E-01  0.311724E-01  0.305744E-01  0.294756E-01
  0.280407E-01  0.264762E-01  0.250247E-01  0.239600E-01  0.235635E-01  0.241016E-01
  0.258505E-01  0.291770E-01  0.346333E-01  0.429958E-01  0.551946E-01  0.721004E-01
  0.941739E-01  0.121057E+00  0.151279E+00  0.182283E+00  0.210853E+00  0.233796E+00
  0.248586E+00  0.253683E+00  0.163812E+00  0.160446E+00  0.150790E+00  0.136094E+00
  0.118196E+00  0.991713E-01  0.809259E-01  0.648708E-01  0.517693E-01  0.417789E-01
  0.346333E-01  0.298746E-01  0.270492E-01  0.258067E-01  0.258975E-01  0.271130E-01
  0.292263E-01  0.319690E-01  0.350387E-01  0.381135E-01  0.408591E-01  0.429414E-01
  0.440699E-01  0.440699E-01  0.429414E-01  0.408591E-01  0.381135E-01  0.350387E-01
  0.319690E-01  0.292263E-01  0.271130E-01  0.258975E-01  0.258067E-01  0.270492E-01
  0.298746E-01  0.346333E-01  0.417789E-01  0.517693E-01  0.648708E-01  0.809259E-01
  0.991713E-01  0.118196E+00  0.136094E+00  0.150790E+00  0.160446E+00  0.163812E+00
  0.102365E+00  0.100398E+00  0.947770E-01  0.862814E-01  0.760126E-01  0.651667E-01
  0.548159E-01  0.457501E-01  0.384092E-01  0.329136E-01  0.291770E-01  0.270492E-01
  0.264109E-01  0.271831E-01  0.292804E-01  0.325711E-01  0.368718E-01  0.419450E-01
  0.474715E-01  0.530098E-01  0.579918E-01  0.617896E-01  0.638512E-01  0.638512E-01
  0.617896E-01  0.579918E-01  0.530098E-01  0.474715E-01  0.419450E-01  0.368718E-01
  0.325711E-01  0.292804E-01  0.271831E-01  0.264109E-01  0.270492E-01  0.291770E-01
  0.329136E-01  0.384092E-01  0.457501E-01  0.548159E-01  0.651667E-01  0.760126E-01
  0.862814E-01  0.947770E-01  0.100398E+00  0.102365E+00  0.642294E-01  0.631579E-01
  0.600975E-01  0.554741E-01  0.498902E-01  0.440049E-01  0.384209E-01  0.335986E-01
  0.298192E-01  0.272143E-01  0.258505E-01  0.258067E-01  0.271831E-01  0.300537E-01
  0.344352E-01  0.403069E-01  0.476201E-01  0.562236E-01  0.657234E-01  0.753808E-01
  0.841493E-01  0.908623E-01  0.945112E-01  0.945112E-01  0.908623E-01  0.841493E-01
  0.753808E-01  0.657234E-01  0.562236E-01  0.476201E-01  0.403069E-01  0.344352E-01
  0.300537E-01  0.271831E-01  0.258067E-01  0.258505E-01  0.272143E-01  0.298192E-01
  0.335986E-01  0.384209E-01  0.440049E-01  0.498902E-01  0.554741E-01  0.600975E-01
  0.631579E-01  0.642294E-01  0.416079E-01  0.410451E-01  0.394364E-01  0.370054E-01
  0.340773E-01  0.310236E-01  0.282006E-01  0.258982E-01  0.243263E-01  0.236595E-01
  0.241016E-01  0.258975E-01  0.292804E-01  0.344352E-01  0.415478E-01  0.508594E-01
  0.625803E-01  0.766370E-01  0.924109E-01  0.108637E+00  0.123515E+00  0.135007E+00
  0.141296E+00  0.141296E+00  0.135007E+00  0.123515E+00  0.108637E+00  0.924109E-01
  0.766370E-01  0.625803E-01  0.508594E-01  0.415478E-01  0.344352E-01  0.292804E-01
  0.258975E-01  0.241016E-01  0.236595E-01  0.243263E-01  0.258982E-01  0.282006E-01
  0.310236E-01  0.340773E-01  0.370054E-01  0.394364E-01  0.410451E-01  0.416079E-01
  0.282195E-01  0.279314E-01  0.271088E-01  0.258722E-01  0.244079E-01  0.229457E-01
  0.217223E-01  0.209489E-01  0.208228E-01  0.215864E-01  0.235635E-01  0.271130E-01
  0.325711E-01  0.403069E-01  0.508594E-01  0.649203E-01  0.830250E-01  0.105131E+00
  0.130347E+00  0.156841E+00  0.181793E+00  0.201599E+00  0.212658E+00  0.212658E+00
  0.201599E+00  0.181793E+00  0.156841E+00  0.130347E+00  0.105131E+00  0.830250E-01
  0.649203E-01  0.508594E-01  0.403069E-01  0.325711E-01  0.271130E-01  0.235635E-01
  0.215864E-01  0.208228E-01  0.209489E-01  0.217223E-01  0.229457E-01  0.244079E-01
  0.258722E-01  0.271088E-01  0.279314E-01  0.282195E-01  0.200539E-01  0.199145E-01
  0.195192E-01  0.189388E-01  0.182953E-01  0.177556E-01  0.175046E-01  0.177278E-01
  0.186467E-01  0.205833E-01  0.239600E-01  0.292263E-01  0.368718E-01  0.476201E-01
  0.625803E-01  0.830250E-01  0.109877E+00  0.143348E+00  0.182782E+00  0.226141E+00
  0.269018E+00  0.304438E+00  0.324706E+00  0.324706E+00  0.304438E+00  0.269018E+00
  0.226141E+00  0.182782E+00  0.143348E+00  0.109877E+00  0.830250E-01  0.625803E-01
  0.476201E-01  0.368718E-01  0.292263E-01  0.239600E-01  0.205833E-01  0.186467E-01
  0.177278E-01  0.175046E-01  0.177556E-01  0.182953E-01  0.189388E-01  0.195192E-01
  0.199145E-01  0.200539E-01  0.148545E-01  0.147990E-01  0.146466E-01  0.144456E-01
  0.142922E-01  0.143288E-01  0.147215E-01  0.156572E-01  0.174009E-01  0.203547E-01
  0.250247E-01  0.319690E-01  0.419450E-01  0.562236E-01  0.766370E-01  0.105131E+00
  0.143348E+00  0.192728E+00  0.254181E+00  0.325803E+00  0.399695E+00  0.461934E+00
  0.497666E+00  0.497666E+00  0.461934E+00  0.399695E+00  0.325803E+00  0.254181E+00
  0.192728E+00  0.143348E+00  0.105131E+00  0.766370E-01  0.562236E-01  0.419450E-01
  0.319690E-01  0.250247E-01  0.203547E-01  0.174009E-01  0.156572E-01  0.147215E-01
  0.143288E-01  0.142922E-01  0.144456E-01  0.146466E-01  0.147990E-01  0.148545E-01
  0.114455E-01  0.114404E-01  0.114354E-01  0.114707E-01  0.116344E-01  0.120611E-01
  0.129113E-01  0.143857E-01  0.168010E-01  0.206352E-01  0.264762E-01  0.350387E-01
  0.474715E-01  0.657234E-01  0.924109E-01  0.130347E+00  0.182782E+00  0.254181E+00
  0.348445E+00  0.462307E+00  0.579107E+00  0.673202E+00  0.724214E+00  0.724214E+00
  0.673202E+00  0.579107E+00  0.462307E+00  0.348445E+00  0.254181E+00  0.182782E+00
  0.130347E+00  0.924109E-01  0.657234E-01  0.474715E-01  0.350387E-01  0.264762E-01
  0.206352E-01  0.168010E-01  0.143857E-01  0.129113E-01  0.120611E-01  0.116344E-01
  0.114707E-01  0.114354E-01  0.114404E-01  0.114455E-01  0.921049E-02  0.923718E-02
  0.932614E-02  0.951613E-02  0.989484E-02  0.105944E-01  0.117746E-01  0.136559E-01
  0.166078E-01  0.211780E-01  0.280407E-01  0.381135E-01  0.530098E-01  0.753808E-01
  0.108637E+00  0.156841E+00  0.226141E+00  0.325803E+00  0.462307E+00  0.624434E+00
  0.774901E+00  0.872989E+00  0.912098E+00  0.912098E+00  0.872989E+00  0.774901E+00
  0.624434E+00  0.462307E+00  0.325803E+00  0.226141E+00  0.156841E+00  0.108637E+00
  0.753808E-01  0.530098E-01  0.381135E-01  0.280407E-01  0.211780E-01  0.166078E-01
  0.136559E-01  0.117746E-01  0.105944E-01  0.989484E-02  0.951613E-02  0.932614E-02
  0.923718E-02  0.921049E-02  0.778478E-02  0.783136E-02  0.798011E-02  0.827102E-02
  0.879359E-02  0.967925E-02  0.110895E-01  0.132660E-01  0.166255E-01  0.217755E-01
  0.294756E-01  0.408591E-01  0.579918E-01  0.841493E-01  0.123515E+00  0.181793E+00
  0.269018E+00  0.399695E+00  0.579107E+00  0.774901E+00  0.910432E+00  0.931698E+00
  0.891053E+00  0.891053E+00  0.931698E+00  0.910432E+00  0.774901E+00  0.579107E+00
  0.399695E+00  0.269018E+00  0.181793E+00  0.123515E+00  0.841493E-01  0.579918E-01
  0.408591E-01  0.294756E-01  0.217755E-01  0.166255E-01  0.132660E-01  0.110895E-01
  0.967925E-02  0.879359E-02  0.827102E-02  0.798011E-02  0.783136E-02  0.778478E-02
  0.693620E-02  0.699444E-02  0.717866E-02  0.753071E-02  0.814212E-02  0.914438E-02
  0.107017E-01  0.130733E-01  0.167122E-01  0.222693E-01  0.305744E-01  0.429414E-01
  0.617896E-01  0.908623E-01  0.135007E+00  0.201599E+00  0.304438E+00  0.461934E+00
  0.673202E+00  0.872989E+00  0.931698E+00  0.789154E+00  0.600665E+00  0.600665E+00
  0.789154E+00  0.931698E+00  0.872989E+00  0.673202E+00  0.461934E+00  0.304438E+00
  0.201599E+00  0.135007E+00  0.908623E-01  0.617896E-01  0.429414E-01  0.305744E-01
  0.222693E-01  0.167122E-01  0.130733E-01  0.107017E-01  0.914438E-02  0.814212E-02
  0.753071E-02  0.717866E-02  0.699444E-02  0.693620E-02  0.653661E-02  0.660024E-02
  0.680102E-02  0.718203E-02  0.783610E-02  0.889495E-02  0.105247E-01  0.129949E-01
  0.167778E-01  0.225471E-01  0.311724E-01  0.440699E-01  0.638512E-01  0.945112E-01
  0.141296E+00  0.212658E+00  0.324706E+00  0.497666E+00  0.724214E+00  0.912098E+00
  0.891053E+00  0.600665E+00  0.283986E+00  0.283986E+00  0.600665E+00  0.891053E+00
  0.912098E+00  0.724214E+00  0.497666E+00  0.324706E+00  0.212658E+00  0.141296E+00
  0.945112E-01  0.638512E-01  0.440699E-01  0.311724E-01  0.225471E-01  0.167778E-01
  0.129949E-01  0.105247E-01  0.889495E-02  0.783610E-02  0.718203E-02  0.680102E-02
  0.660024E-02  0.653661E-02  0.653661E-02  0.660024E-02  0.680102E-02  0.718203E-02
  0.783610E-02  0.889495E-02  0.105247E-01  0.129949E-01  0.167778E-01  0.225471E-01
  0.311724E-01  0.440699E-01  0.638512E-01  0.945112E-01  0.141296E+00  0.212658E+00
  0.324706E+00  0.497666E+00  0.724214E+00  0.912098E+00  0.891053E+00  0.600665E+00
  0.283986E+00  0.283986E+00  0.600665E+00  0.891053E+00  0.912098E+00  0.724214E+00
  0.497666E+00  0.324706E+00  0.212658E+00  0.141296E+00  0.945112E-01  0.638512E-01
  0.440699E-01  0.311724E-01  0.225471E-01  0.167778E-01  0.129949E-01  0.105247E-01
  0.889495E-02  0.783610E-02  0.718203E-02  0.680102E-02  0.660024E-02  0.653661E-02
  0.693620E-02  0.699444E-02  0.717866E-02  0.753071E-02  0.814212E-02  0.914438E-02
  0.107017E-01  0.130733E-01  0.167122E-01  0.222693E-01  0.305744E-01  0.429414E-01
  0.617896E-01  0.908623E-01  0.135007E+00  0.201599E+00  0.304438E+00  0.461934E+00
  0.673202E+00  0.872989E+00  0.931698E+00  0.789154E+00  0.600665E+00  0.600665E+00
  0.789154E+00  0.931698E+00  0.872989E+00  0.673202E+00  0.461934E+00  0.304438E+00
  0.201599E+00  0.135007E+00  0.908623E-01  0.617896E-01  0.429414E-01  0.305744E-01
  0.222693E-01  0.167122E-01  0.130733E-01  0.107017E-01  0.914438E-02  0.814212E-02
  0.753071E-02  0.717866E-02  0.699444E-02  0.693620E-02  0.778478E-02  0.783136E-02
  0.798011E-02  0.827102E-02  0.879359E-02  0.967925E-02  0.110895E-01  0.132660E-01
  0.166255E-01  0.217755E-01  0.294756E-01  0.408591E-01  0.579918E-01  0.841493E-01
  0.123515E+00  0.181793E+00  0.269018E+00  0.399695E+00  0.579107E+00  0.774901E+00
  0.910432E+00  0.931698E+00  0.891053E+00  0.891053E+00  0.931698E+00  0.910432E+00
  0.774901E+00  0.579107E+00  0.399695E+00  0.269018E+00  0.181793E+00  0.123515E+00
  0.841493E-01  0.579918E-01  0.408591E-01  0.294756E-01  0.217755E-01  0.166255E-01
  0.132660E-01  0.110895E-01  0.967925E-02  0.879359E-02  0.827102E-02  0.798011E-02
  0.783136E-02  0.778478E-02  0.921049E-02  0.923718E-02  0.932614E-02  0.951613E-02
  0.989484E-02  0.105944E-01  0.117746E-01  0.136559E-01  0.166078E-01  0.211780E-01
  0.280407E-01  0.381135E-01  0.530098E-01  0.753808E-01  0.108637E+00  0.156841E+00
  0.226141E+00  0.325803E+00  0.462307E+00  0.624434E+00  0.774901E+00  0.872989E+00
  0.912098E+00  0.912098E+00  0.872989E+00  0.774901E+00  0.624434E+00  0.462307E+00
  0.325803E+00  0.226141E+00  0.156841E+00  0.108637E+00  0.753808E-01  0.530098E-01
  0.381135E-01  0.280407E-01  0.211780E-01  0.166078E-01  0.136559E-01  0.117746E-01
  0.105944E-01  0.989484E-02  0.951613E-02  0.932614E-02  0.923718E-02  0.921049E-02
  0.114455E-01  0.114404E-01  0.114354E-01  0.114707E-01  0.116344E-01  0.120611E-01
  0.129113E-01  0.143857E-01  0.168010E-01  0.206352E-01  0.264762E-01  0.350387E-01
  0.474715E-01  0.657234E-01  0.924109E-01  0.130347E+00  0.182782E+00  0.254181E+00
  0.348445E+00  0.462307E+00  0.579107E+00  0.673202E+00  0.724214E+00  0.724214E+00
  0.673202E+00  0.579107E+00  0.462307E+00  0.348445E+00  0.254181E+00  0.182782E+00
  0.130347E+00  0.924109E-01  0.657234E-01  0.474715E-01  0.350387E-01  0.264762E-01
  0.206352E-01  0.168010E-01  0.143857E-01  0.129113E-01  0.120611E-01  0.116344E-01
  0.114707E-01  0.114354E-01  0.114404E-01  0.114455E-01  0.148545E-01  0.147990E-01
  0.146466E-01  0.144456E-01  0.142922E-01  0.143288E-01  0.147215E-01  0.156572E-01
  0.174009E-01  0.203547E-01  0.250247E-01  0.319690E-01  0.419450E-01  0.562236E-01
  0.766370E-01  0.105131E+00  0.143348E+00  0.192728E+00  0.254181E+00  0.325803E+00
  0.399695E+00  0.461934E+00  0.497666E+00  0.497666E+00  0.461934E+00  0.399695E+00
  0.325803E+00  0.254181E+00  0.192728E+00  0.143348E+00  0.105131E+00  0.766370E-01
  0.562236E-01  0.419450E-01  0.319690E-01  0.250247E-01  0.203547E-01  0.174009E-01
  0.156572E-01  0.147215E-01  0.143288E-01  0.142922E-01  0.144456E-01  0.146466E-01
  0.147990E-01  0.148545E-01  0.200539E-01  0.199145E-01  0.195192E-01  0.189388E-01
  0.182953E-01  0.177556E-01  0.175046E-01  0.177278E-01  0.186467E-01  0.205833E-01
  0.239600E-01  0.292263E-01  0.368718E-01  0.476201E-01  0.625803E-01  0.830250E-01
  0.109877E+00  0.143348E+00  0.182782E+00  0.226141E+00  0.269018E+00  0.304438E+00
  0.324706E+00  0.324706E+00  0.304438E+00  0.269018E+00  0.226141E+00  0.182782E+00
  0.143348E+00  0.109877E+00  0.830250E-01  0.625803E-01  0.476201E-01  0.368718E-01
  0.292263E-01  0.239600E-01  0.205833E-01  0.186467E-01  0.177278E-01  0.175046E-01
  0.177556E-01  0.182953E-01  0.189388E-01  0.195192E-01  0.199145E-01  0.200539E-01
  0.282195E-01  0.279314E-01  0.271088E-01  0.258722E-01  0.244079E-01  0.229457E-01
  0.217223E-01  0.209489E-01  0.208228E-01  0.215864E-01  0.235635E-01  0.271130E-01
  0.325711E-01  0.403069E-01  0.508594E-01  0.649203E-01  0.830250E-01  0.105131E+00
  0.130347E+00  0.156841E+00  0.181793E+00  0.201599E+00  0.212658E+00  0.212658E+00
  0.201599E+00  0.181793E+00  0.156841E+00  0.130347E+00  0.105131E+00  0.830250E-01
  0.649203E-01  0.508594E-01  0.403069E-01  0.325711E-01  0.271130E-01  0.235635E-01
  0.215864E-01  0.208228E-01  0.209489E-01  0.217223E-01  0.229457E-01  0.244079E-01
  0.258722E-01  0.271088E-01  0.279314E-01  0.282195E-01  0.416079E-01  0.410451E-01
  0.394364E-01  0.370054E-01  0.340773E-01  0.310236E-01  0.282006E-01  0.258982E-01
  0.243263E-01  0.236595E-01  0.241016E-01  0.258975E-01  0.292804E-01  0.344352E-01
  0.415478E-01  0.508594E-01  0.625803E-01  0.766370E-01  0.924109E-01  0.108637E+00
  0.123515E+00  0.135007E+00  0.141296E+00  0.141296E+00  0.135007E+00  0.123515E+00
  0.108637E+00  0.924109E-01  0.766370E-01  0.625803E-01  0.508594E-01  0.415478E-01
  0.344352E-01  0.292804E-01  0.258975E-01  0.241016E-01  0.236595E-01  0.243263E-01
  0.258982E-01  0.282006E-01  0.310236E-01  0.340773E-01  0.370054E-01  0.394364E-01
  0.410451E-01  0.416079E-01  0.642294E-01  0.631579E-01  0.600975E-01  0.554741E-01
  0.498902E-01  0.440049E-01  0.384209E-01  0.335986E-01  0.298192E-01  0.272143E-01
  0.258505E-01  0.258067E-01  0.271831E-01  0.300537E-01  0.344352E-01  0.403069E-01
  0.476201E-01  0.562236E-01  0.657234E-01  0.753808E-01  0.841493E-01  0.908623E-01
  0.945112E-01  0.945112E-01  0.908623E-01  0.841493E-01  0.753808E-01  0.657234E-01
  0.562236E-01  0.476201E-01  0.403069E-01  0.344352E-01  0.300537E-01  0.271831E-01
  0.258067E-01  0.258505E-01  0.272143E-01  0.298192E-01  0.335986E-01  0.384209E-01
  0.440049E-01  0.498902E-01  0.554741E-01  0.600975E-01  0.631579E-01  0.642294E-01
  0.102365E+00  0.100398E+00  0.947770E-01  0.862814E-01  0.760126E-01  0.651667E-01
  0.548159E-01  0.457501E-01  0.384092E-01  0.329136E-01  0.291770E-01  0.270492E-01
  0.264109E-01  0.271831E-01  0.292804E-01  0.325711E-01  0.368718E-01  0.419450E-01
  0.474715E-01  0.530098E-01  0.579918E-01  0.617896E-01  0.638512E-01  0.638512E-01
  0.617896E-01  0.579918E-01  0.530098E-01  0.474715E-01  0.419450E-01  0.368718E-01
  0.325711E-01  0.292804E-01  0.271831E-01  0.264109E-01  0.270492E-01  0.291770E-01
  0.329136E-01  0.384092E-01  0.457501E-01  0.548159E-01  0.651667E-01  0.760126E-01
  0.862814E-01  0.947770E-01  0.100398E+00  0.102365E+00  0.163812E+00  0.160446E+00
  0.150790E+00  0.136094E+00  0.118196E+00  0.991713E-01  0.809259E-01  0.648708E-01
  0.517693E-01  0.417789E-01  0.346333E-01  0.298746E-01  0.270492E-01  0.258067E-01
  0.258975E-01  0.271130E-01  0.292263E-01  0.319690E-01  0.350387E-01  0.381135E-01
  0.408591E-01  0.429414E-01  0.440699E-01  0.440699E-01  0.429414E-01  0.408591E-01
  0.381135E-01  0.350387E-01  0.319690E-01  0.292263E-01  0.271130E-01  0.258975E-01
  0.258067E-01  0.270492E-01  0.298746E-01  0.346333E-01  0.417789E-01  0.517693E-01
  0.648708E-01  0.809259E-01  0.991713E-01  0.118196E+00  0.136094E+00  0.150790E+00
  0.160446E+00  0.163812E+00  0.253683E+00  0.248586E+00  0.233796E+00  0.210853E+00
  0.182283E+00  0.151279E+00  0.121057E+00  0.941739E-01  0.721004E-01  0.551946E-01
  0.429958E-01  0.346333E-01  0.291770E-01  0.258505E-01  0.241016E-01  0.235635E-01
  0.239600E-01  0.250247E-01  0.264762E-01  0.280407E-01  0.294756E-01  0.305744E-01
  0.311724E-01  0.311724E-01  0.305744E-01  0.294756E-01  0.280407E-01  0.264762E-01
  0.250247E-01  0.239600E-01  0.235635E-01  0.241016E-01  0.258505E-01  0.291770E-01
  0.346333E-01  0.429958E-01  0.551946E-01  0.721004E-01  0.941739E-01  0.121057E+00
  0.151279E+00  0.182283E+00  0.210853E+00  0.233796E+00  0.248586E+00  0.253683E+00
  0.365759E+00  0.359388E+00  0.340461E+00  0.309895E+00  0.270004E+00  0.224703E+00
  0.178823E+00  0.136851E+00  0.101795E+00  0.747426E-01  0.551946E-01  0.417789E-01
  0.329136E-01  0.272143E-01  0.236595E-01  0.215864E-01  0.205833E-01  0.203547E-01
  0.206352E-01  0.211780E-01  0.217755E-01  0.222693E-01  0.225471E-01  0.225471E-01
  0.222693E-01  0.217755E-01  0.211780E-01  0.206352E-01  0.203547E-01  0.205833E-01
  0.215864E-01  0.236595E-01  0.272143E-01  0.329136E-01  0.417789E-01  0.551946E-01
  0.747426E-01  0.101795E+00  0.136851E+00  0.178823E+00  0.224703E+00  0.270004E+00
  0.309895E+00  0.340461E+00  0.359388E+00  0.365759E+00  0.474199E+00  0.468470E+00
  0.450465E+00  0.418663E+00  0.372928E+00  0.316163E+00  0.254292E+00  0.194469E+00
  0.142620E+00  0.101795E+00  0.721004E-01  0.517693E-01  0.384092E-01  0.298192E-01
  0.243263E-01  0.208228E-01  0.186467E-01  0.174009E-01  0.168010E-01  0.166078E-01
  0.166255E-01  0.167122E-01  0.167778E-01  0.167778E-01  0.167122E-01  0.166255E-01
  0.166078E-01  0.168010E-01  0.174009E-01  0.186467E-01  0.208228E-01  0.243263E-01
  0.298192E-01  0.384092E-01  0.517693E-01  0.721004E-01  0.101795E+00  0.142620E+00
  0.194469E+00  0.254292E+00  0.316163E+00  0.372928E+00  0.418663E+00  0.450465E+00
  0.468470E+00  0.474199E+00  0.536719E+00  0.534962E+00  0.527164E+00  0.507268E+00
  0.469498E+00  0.412431E+00  0.340975E+00  0.264856E+00  0.194469E+00  0.136851E+00
  0.941739E-01  0.648708E-01  0.457501E-01  0.335986E-01  0.258982E-01  0.209489E-01
  0.177278E-01  0.156572E-01  0.143857E-01  0.136559E-01  0.132660E-01  0.130733E-01
  0.129949E-01  0.129949E-01  0.130733E-01  0.132660E-01  0.136559E-01  0.143857E-01
  0.156572E-01  0.177278E-01  0.209489E-01  0.258982E-01  0.335986E-01  0.457501E-01
  0.648708E-01  0.941739E-01  0.136851E+00  0.194469E+00  0.264856E+00  0.340975E+00
  0.412431E+00  0.469498E+00  0.507268E+00  0.527164E+00  0.534962E+00  0.536719E+00
  0.516004E+00  0.521580E+00  0.533993E+00  0.541839E+00  0.531233E+00  0.492461E+00
  0.425563E+00  0.340975E+00  0.254292E+00  0.178823E+00  0.121057E+00  0.809259E-01
  0.548159E-01  0.384209E-01  0.282006E-01  0.217223E-01  0.175046E-01  0.147215E-01
  0.129113E-01  0.117746E-01  0.110895E-01  0.107017E-01  0.105247E-01  0.105247E-01
  0.107017E-01  0.110895E-01  0.117746E-01  0.129113E-01  0.147215E-01  0.175046E-01
  0.217223E-01  0.282006E-01  0.384209E-01  0.548159E-01  0.809259E-01  0.121057E+00
  0.178823E+00  0.254292E+00  0.340975E+00  0.425563E+00  0.492461E+00  0.531233E+00
  0.541839E+00  0.533993E+00  0.521580E+00  0.516004E+00  0.408301E+00  0.422304E+00
  0.459391E+00  0.505005E+00  0.537636E+00  0.536613E+00  0.492461E+00  0.412431E+00
  0.316163E+00  0.224703E+00  0.151279E+00  0.991713E-01  0.651667E-01  0.440049E-01
  0.310236E-01  0.229457E-01  0.177556E-01  0.143288E-01  0.120611E-01  0.105944E-01
  0.967925E-02  0.914438E-02  0.889495E-02  0.889495E-02  0.914438E-02  0.967925E-02
  0.105944E-01  0.120611E-01  0.143288E-01  0.177556E-01  0.229457E-01  0.310236E-01
  0.440049E-01  0.651667E-01  0.991713E-01  0.151279E+00  0.224703E+00  0.316163E+00
  0.412431E+00  0.492461E+00  0.536613E+00  0.537636E+00  0.505005E+00  0.459391E+00
  0.422304E+00  0.408301E+00  0.254156E+00  0.273783E+00  0.329695E+00  0.409843E+00
  0.489602E+00  0.537636E+00  0.531233E+00  0.469498E+00  0.372928E+00  0.270004E+00
  0.182283E+00  0.118196E+00  0.760126E-01  0.498902E-01  0.340773E-01  0.244079E-01
  0.182953E-01  0.142922E-01  0.116344E-01  0.989484E-02  0.879359E-02  0.814212E-02
  0.783610E-02  0.783610E-02  0.814212E-02  0.879359E-02  0.989484E-02  0.116344E-01
  0.142922E-01  0.182953E-01  0.244079E-01  0.340773E-01  0.498902E-01  0.760126E-01
  0.118196E+00  0.182283E+00  0.270004E+00  0.372928E+00  0.469498E+00  0.531233E+00
  0.537636E+00  0.489602E+00  0.409843E+00  0.329695E+00  0.273783E+00  0.254156E+00
  0.115891E+00  0.135185E+00  0.195175E+00  0.293634E+00  0.409843E+00  0.505005E+00
  0.541839E+00  0.507268E+00  0.418663E+00  0.309895E+00  0.210853E+00  0.136094E+00
  0.862814E-01  0.554741E-01  0.370054E-01  0.258722E-01  0.189388E-01  0.144456E-01
  0.114707E-01  0.951613E-02  0.827102E-02  0.753071E-02  0.718203E-02  0.718203E-02
  0.753071E-02  0.827102E-02  0.951613E-02  0.114707E-01  0.144456E-01  0.189388E-01
  0.258722E-01  0.370054E-01  0.554741E-01  0.862814E-01  0.136094E+00  0.210853E+00
  0.309895E+00  0.418663E+00  0.507268E+00  0.541839E+00  0.505005E+00  0.409843E+00
  0.293634E+00  0.195175E+00  0.135185E+00  0.115891E+00  0.357099E-01  0.489469E-01
  0.978863E-01  0.195175E+00  0.329695E+00  0.459391E+00  0.533993E+00  0.527164E+00
  0.450465E+00  0.340461E+00  0.233796E+00  0.150790E+00  0.947770E-01  0.600975E-01
  0.394364E-01  0.271088E-01  0.195192E-01  0.146466E-01  0.114354E-01  0.932614E-02
  0.798011E-02  0.717866E-02  0.680102E-02  0.680102E-02  0.717866E-02  0.798011E-02
  0.932614E-02  0.114354E-01  0.146466E-01  0.195192E-01  0.271088E-01  0.394364E-01
  0.600975E-01  0.947770E-01  0.150790E+00  0.233796E+00  0.340461E+00  0.450465E+00
  0.527164E+00  0.533993E+00  0.459391E+00  0.329695E+00  0.195175E+00  0.978863E-01
  0.489469E-01  0.357099E-01  0.104372E-01  0.161571E-01  0.489469E-01  0.135185E+00
  0.273783E+00  0.422304E+00  0.521580E+00  0.534962E+00  0.468470E+00  0.359388E+00
  0.248586E+00  0.160446E+00  0.100398E+00  0.631579E-01  0.410451E-01  0.279314E-01
  0.199145E-01  0.147990E-01  0.114404E-01  0.923718E-02  0.783136E-02  0.699444E-02
  0.660024E-02  0.660024E-02  0.699444E-02  0.783136E-02  0.923718E-02  0.114404E-01
  0.147990E-01  0.199145E-01  0.279314E-01  0.410451E-01  0.631579E-01  0.100398E+00
  0.160446E+00  0.248586E+00  0.359388E+00  0.468470E+00  0.534962E+00  0.521580E+00