
     Program PWSCF v.6.7MaX starts on  8Sep2021 at  2:38:23 

     This program is part of the open-source Quantum ESPRESSO suite
     for quantum simulation of materials; please cite
         "P. Giannozzi et al., J. Phys.:Condens. Matter 21 395502 (2009);
         "P. Giannozzi et al., J. Phys.:Condens. Matter 29 465901 (2017);
          URL http://www.quantum-espresso.org", 
     in publications or presentations arising from this work. More details at
     http://www.quantum-espresso.org/quote

     Parallel version (MPI), running on    80 processors

     MPI processes distributed on     4 nodes
     R & G space division:  proc/nbgrp/npool/nimage =      80
     Reading input from relax-sym.in

     Current dimensions of program PWSCF are:
     Max number of different atomic species (ntypx) = 10
     Max number of k-points (npk) =  40000
     Max angular momentum in pseudopotentials (lmaxx) =  3
     Message from routine read_pp_mesh:
     mesh size missing, using the one in header
     Message from routine read_pp_mesh:
     mesh size missing, using the one in header
     Message from routine read_pp_mesh:
     mesh size missing, using the one in header

     IMPORTANT: XC functional enforced from input :
     Exchange-correlation= SCAN
                           (   0   0   0   0   0 263 267)
     Any further DFT definition will be discarded
     Please, verify this is what you really want


     Subspace diagonalization in iterative solution of the eigenvalue problem:
     a serial algorithm will be used

     Message from routine setup:
     using ibrav=0 with symmetry is DISCOURAGED, use correct ibrav instead
 
     Parallelization info
     --------------------
     sticks:   dense  smooth     PW     G-vecs:    dense   smooth      PW
     Min          31      31      8                 1337     1337     194
     Max          32      32      9                 1346     1346     203
     Sum        2545    2545    717               107367   107367   15989
 


     bravais-lattice index     =            0
     lattice parameter (alat)  =       7.2943  a.u.
     unit-cell volume          =     432.3542 (a.u.)^3
     number of atoms/cell      =            5
     number of atomic types    =            3
     number of electrons       =        44.00
     number of Kohn-Sham states=           22
     kinetic-energy cutoff     =     150.0000  Ry
     charge density cutoff     =     600.0000  Ry
     scf convergence threshold =      1.0E-08
     mixing beta               =       0.7000
     number of iterations used =            8  plain     mixing
     energy convergence thresh.=      1.0E-06
     force convergence thresh. =      1.0E-05
     press convergence thresh. =      5.0E-01
     Exchange-correlation= SCAN
                           (   0   0   0   0   0 263 267)
     nstep                     =           50


     celldm(1)=   7.294343  celldm(2)=   0.000000  celldm(3)=   0.000000
     celldm(4)=   0.000000  celldm(5)=   0.000000  celldm(6)=   0.000000

     crystal axes: (cart. coord. in units of alat)
               a(1) = (   1.000000   0.000000   0.000000 )  
               a(2) = (   0.000000   1.000000   0.000000 )  
               a(3) = (   0.000000   0.000000   1.113990 )  

     reciprocal axes: (cart. coord. in units 2 pi/alat)
               b(1) = (  1.000000  0.000000  0.000000 )  
               b(2) = (  0.000000  1.000000  0.000000 )  
               b(3) = (  0.000000  0.000000  0.897674 )  


     PseudoPot. # 1 for Pb read from file:
     /home/pinchenx/data.gpfs/softwares/QuantumEspresso/q-e-qe-6.4.1/pseudo/Pb_ONCV_PBE-1.2.upf
     MD5 check sum: 7f27c247474026287e0dbe0f3167d60b
     Pseudo is Norm-conserving, Zval = 14.0
     Generated using ONCVPSP code by D. R. Hamann
     Using radial grid of  602 points,  8 beta functions with: 
                l(1) =   0
                l(2) =   0
                l(3) =   1
                l(4) =   1
                l(5) =   2
                l(6) =   2
                l(7) =   3
                l(8) =   3

     PseudoPot. # 2 for Ti read from file:
     /home/pinchenx/data.gpfs/softwares/QuantumEspresso/q-e-qe-6.4.1/pseudo/Ti_ONCV_PBE-1.2.upf
     MD5 check sum: 1aea57736bd12dcfee93c97d0b9b5968
     Pseudo is Norm-conserving, Zval = 12.0
     Generated using ONCVPSP code by D. R. Hamann
     Using radial grid of  602 points,  6 beta functions with: 
                l(1) =   0
                l(2) =   0
                l(3) =   1
                l(4) =   1
                l(5) =   2
                l(6) =   2

     PseudoPot. # 3 for O  read from file:
     /home/pinchenx/data.gpfs/softwares/QuantumEspresso/q-e-qe-6.4.1/pseudo/O_ONCV_PBE-1.2.upf
     MD5 check sum: e36c48deb68f4e355fffe4602be2c42c
     Pseudo is Norm-conserving, Zval =  6.0
     Generated using ONCVPSP code by D. R. Hamann
     Using radial grid of  602 points,  4 beta functions with: 
                l(1) =   0
                l(2) =   0
                l(3) =   1
                l(4) =   1

     atomic species   valence    mass     pseudopotential
        Pb            14.00   207.20000     Pb( 1.00)
        Ti            12.00    47.86700     Ti( 1.00)
        O              6.00    15.99900     O ( 1.00)

      8 Sym. Ops. (no inversion) found



   Cartesian axes

     site n.     atom                  positions (alat units)
         1           Pb  tau(   1) = (   0.0000000   0.0000000   0.0000000  )
         2           Ti  tau(   2) = (   0.5000000   0.5000000   0.6088083  )
         3           O   tau(   3) = (   0.5000000   0.5000000   0.1554404  )
         4           O   tau(   4) = (   0.0000000   0.5000000   0.7124352  )
         5           O   tau(   5) = (   0.5000000   0.0000000   0.7124352  )

     number of k points=    18
                       cart. coord. in units 2pi/alat
        k(    1) = (   0.0000000   0.0000000   0.0000000), wk =   0.0312500
        k(    2) = (   0.0000000   0.0000000   0.2244186), wk =   0.0625000
        k(    3) = (   0.0000000   0.0000000  -0.4488372), wk =   0.0312500
        k(    4) = (   0.0000000   0.2500000   0.0000000), wk =   0.1250000
        k(    5) = (   0.0000000   0.2500000   0.2244186), wk =   0.2500000
        k(    6) = (   0.0000000   0.2500000  -0.4488372), wk =   0.1250000
        k(    7) = (   0.0000000  -0.5000000   0.0000000), wk =   0.0625000
        k(    8) = (   0.0000000  -0.5000000   0.2244186), wk =   0.1250000
        k(    9) = (   0.0000000  -0.5000000  -0.4488372), wk =   0.0625000
        k(   10) = (   0.2500000   0.2500000   0.0000000), wk =   0.1250000
        k(   11) = (   0.2500000   0.2500000   0.2244186), wk =   0.2500000
        k(   12) = (   0.2500000   0.2500000  -0.4488372), wk =   0.1250000
        k(   13) = (   0.2500000  -0.5000000   0.0000000), wk =   0.1250000
        k(   14) = (   0.2500000  -0.5000000   0.2244186), wk =   0.2500000
        k(   15) = (   0.2500000  -0.5000000  -0.4488372), wk =   0.1250000
        k(   16) = (  -0.5000000  -0.5000000   0.0000000), wk =   0.0312500
        k(   17) = (  -0.5000000  -0.5000000   0.2244186), wk =   0.0625000
        k(   18) = (  -0.5000000  -0.5000000  -0.4488372), wk =   0.0312500

     Dense  grid:   107367 G-vectors     FFT dimensions: (  60,  60,  64)

     Estimated max dynamical RAM per process >      31.32 MB

     Estimated total dynamical RAM >       2.45 GB

     Initial potential from superposition of free atoms

     starting charge   43.78536, renormalised to   44.00000
     Starting wfcs are random

     total cpu time spent up to now is        1.5 secs

     Self-consistent Calculation

     iteration #  1     ecut=   150.00 Ry     beta= 0.70
     Davidson diagonalization with overlap
     ethr =  1.00E-02,  avg # of iterations = 11.3

     total cpu time spent up to now is        5.2 secs

     total energy              =    -323.29592568 Ry
     estimated scf accuracy    <      67.48483016 Ry

     iteration #  2     ecut=   150.00 Ry     beta= 0.70
     Davidson diagonalization with overlap
     ethr =  1.00E-02,  avg # of iterations =  4.7

     total cpu time spent up to now is        6.5 secs

     total energy              =    -322.74471700 Ry
     estimated scf accuracy    <      12.18119560 Ry

     iteration #  3     ecut=   150.00 Ry     beta= 0.70
     Davidson diagonalization with overlap
     ethr =  1.00E-02,  avg # of iterations =  4.1

     total cpu time spent up to now is        7.9 secs

     total energy              =    -323.91760915 Ry
     estimated scf accuracy    <      15.59035389 Ry

     iteration #  4     ecut=   150.00 Ry     beta= 0.70
     Davidson diagonalization with overlap
     ethr =  1.00E-02,  avg # of iterations =  1.8

     total cpu time spent up to now is        8.9 secs

     total energy              =    -323.95256306 Ry
     estimated scf accuracy    <       2.06935158 Ry

     iteration #  5     ecut=   150.00 Ry     beta= 0.70
     Davidson diagonalization with overlap
     ethr =  4.70E-03,  avg # of iterations =  1.3

     total cpu time spent up to now is        9.9 secs

     total energy              =    -323.99578338 Ry
     estimated scf accuracy    <       0.50696465 Ry

     iteration #  6     ecut=   150.00 Ry     beta= 0.70
     Davidson diagonalization with overlap
     ethr =  1.15E-03,  avg # of iterations =  2.7

     total cpu time spent up to now is       11.0 secs

     total energy              =    -324.03105919 Ry
     estimated scf accuracy    <       0.25928391 Ry

     iteration #  7     ecut=   150.00 Ry     beta= 0.70
     Davidson diagonalization with overlap
     ethr =  5.89E-04,  avg # of iterations =  1.1

     total cpu time spent up to now is       11.9 secs

     total energy              =    -324.07350988 Ry
     estimated scf accuracy    <       0.32942296 Ry

     iteration #  8     ecut=   150.00 Ry     beta= 0.70
     Davidson diagonalization with overlap
     ethr =  5.89E-04,  avg # of iterations =  1.4

     total cpu time spent up to now is       12.9 secs

     total energy              =    -324.05258050 Ry
     estimated scf accuracy    <       1.12534808 Ry

     iteration #  9     ecut=   150.00 Ry     beta= 0.70
     Davidson diagonalization with overlap
     ethr =  5.89E-04,  avg # of iterations =  1.0

     total cpu time spent up to now is       13.9 secs

     total energy              =    -324.04884558 Ry
     estimated scf accuracy    <       0.72459448 Ry

     iteration # 10     ecut=   150.00 Ry     beta= 0.70
     Davidson diagonalization with overlap
     ethr =  5.89E-04,  avg # of iterations =  1.0

     total cpu time spent up to now is       14.9 secs

     total energy              =    -324.04539986 Ry
     estimated scf accuracy    <       0.56327962 Ry

     iteration # 11     ecut=   150.00 Ry     beta= 0.70
     Davidson diagonalization with overlap
     ethr =  5.89E-04,  avg # of iterations =  1.0

     total cpu time spent up to now is       15.8 secs

     total energy              =    -324.04471154 Ry
     estimated scf accuracy    <       0.43952166 Ry

     iteration # 12     ecut=   150.00 Ry     beta= 0.70
     Davidson diagonalization with overlap
     ethr =  5.89E-04,  avg # of iterations =  1.0

     total cpu time spent up to now is       16.8 secs

     total energy              =    -324.04393330 Ry
     estimated scf accuracy    <       0.36707611 Ry

     iteration # 13     ecut=   150.00 Ry     beta= 0.70
     Davidson diagonalization with overlap
     ethr =  5.89E-04,  avg # of iterations =  1.0

     total cpu time spent up to now is       17.8 secs

     total energy              =    -324.04726286 Ry
     estimated scf accuracy    <       0.29917928 Ry

     iteration # 14     ecut=   150.00 Ry     beta= 0.70
     Davidson diagonalization with overlap
     ethr =  5.89E-04,  avg # of iterations =  1.0

     total cpu time spent up to now is       18.7 secs

     total energy              =    -324.02623383 Ry
     estimated scf accuracy    <       0.32542175 Ry

     iteration # 15     ecut=   150.00 Ry     beta= 0.70
     Davidson diagonalization with overlap
     ethr =  5.89E-04,  avg # of iterations =  2.0

     total cpu time spent up to now is       19.8 secs

     total energy              =    -324.03934178 Ry
     estimated scf accuracy    <       0.00193964 Ry

     iteration # 16     ecut=   150.00 Ry     beta= 0.70
     Davidson diagonalization with overlap
     ethr =  4.41E-06,  avg # of iterations =  8.4

     total cpu time spent up to now is       21.6 secs

     total energy              =    -324.04732102 Ry
     estimated scf accuracy    <       0.08528715 Ry

     iteration # 17     ecut=   150.00 Ry     beta= 0.70
     Davidson diagonalization with overlap
     ethr =  4.41E-06,  avg # of iterations =  1.1

     total cpu time spent up to now is       22.6 secs

     total energy              =    -324.04468696 Ry
     estimated scf accuracy    <       0.09269791 Ry

     iteration # 18     ecut=   150.00 Ry     beta= 0.70
     Davidson diagonalization with overlap
     ethr =  4.41E-06,  avg # of iterations =  3.6

     total cpu time spent up to now is       23.7 secs

     total energy              =    -324.04443110 Ry
     estimated scf accuracy    <       0.06043735 Ry

     iteration # 19     ecut=   150.00 Ry     beta= 0.70
     Davidson diagonalization with overlap
     ethr =  4.41E-06,  avg # of iterations =  1.3

     total cpu time spent up to now is       24.7 secs

     total energy              =    -324.04186178 Ry
     estimated scf accuracy    <       0.05272588 Ry

     iteration # 20     ecut=   150.00 Ry     beta= 0.70
     Davidson diagonalization with overlap
     ethr =  4.41E-06,  avg # of iterations =  6.1

     total cpu time spent up to now is       26.3 secs

     total energy              =    -324.04293343 Ry
     estimated scf accuracy    <       0.00521374 Ry

     iteration # 21     ecut=   150.00 Ry     beta= 0.70
     Davidson diagonalization with overlap
     ethr =  4.41E-06,  avg # of iterations =  1.0

     total cpu time spent up to now is       27.3 secs

     total energy              =    -324.04287933 Ry
     estimated scf accuracy    <       0.00413958 Ry

     iteration # 22     ecut=   150.00 Ry     beta= 0.70
     Davidson diagonalization with overlap
     ethr =  4.41E-06,  avg # of iterations =  1.0

     total cpu time spent up to now is       28.3 secs

     total energy              =    -324.04292772 Ry
     estimated scf accuracy    <       0.00288310 Ry

     iteration # 23     ecut=   150.00 Ry     beta= 0.70
     Davidson diagonalization with overlap
     ethr =  4.41E-06,  avg # of iterations =  1.0

     total cpu time spent up to now is       29.3 secs

     total energy              =    -324.04294841 Ry
     estimated scf accuracy    <       0.00276016 Ry

     iteration # 24     ecut=   150.00 Ry     beta= 0.70
     Davidson diagonalization with overlap
     ethr =  4.41E-06,  avg # of iterations =  1.0

     total cpu time spent up to now is       30.2 secs

     total energy              =    -324.04287541 Ry
     estimated scf accuracy    <       0.00245962 Ry

     iteration # 25     ecut=   150.00 Ry     beta= 0.70
     Davidson diagonalization with overlap
     ethr =  4.41E-06,  avg # of iterations =  1.0

     total cpu time spent up to now is       31.2 secs

     total energy              =    -324.04286275 Ry
     estimated scf accuracy    <       0.00125609 Ry

     iteration # 26     ecut=   150.00 Ry     beta= 0.70
     Davidson diagonalization with overlap
     ethr =  2.85E-06,  avg # of iterations =  1.2

     total cpu time spent up to now is       32.2 secs

     total energy              =    -324.04286785 Ry
     estimated scf accuracy    <       0.00057468 Ry

     iteration # 27     ecut=   150.00 Ry     beta= 0.70
     Davidson diagonalization with overlap
     ethr =  1.31E-06,  avg # of iterations =  4.1

     total cpu time spent up to now is       33.3 secs

     total energy              =    -324.04293412 Ry
     estimated scf accuracy    <       0.00002493 Ry

     iteration # 28     ecut=   150.00 Ry     beta= 0.70
     Davidson diagonalization with overlap
     ethr =  5.67E-08,  avg # of iterations =  5.7

     total cpu time spent up to now is       34.8 secs

     total energy              =    -324.04295725 Ry
     estimated scf accuracy    <       0.00027296 Ry

     iteration # 29     ecut=   150.00 Ry     beta= 0.70
     Davidson diagonalization with overlap
     ethr =  5.67E-08,  avg # of iterations =  1.0

     total cpu time spent up to now is       35.8 secs

     total energy              =    -324.04294816 Ry
     estimated scf accuracy    <       0.00023467 Ry

     iteration # 30     ecut=   150.00 Ry     beta= 0.70
     Davidson diagonalization with overlap
     ethr =  5.67E-08,  avg # of iterations =  2.5

     total cpu time spent up to now is       36.9 secs

     total energy              =    -324.04294552 Ry
     estimated scf accuracy    <       0.00009916 Ry

     iteration # 31     ecut=   150.00 Ry     beta= 0.70
     Davidson diagonalization with overlap
     ethr =  5.67E-08,  avg # of iterations =  3.3

     total cpu time spent up to now is       38.0 secs

     total energy              =    -324.04294630 Ry
     estimated scf accuracy    <       0.00002046 Ry

     iteration # 32     ecut=   150.00 Ry     beta= 0.70
     Davidson diagonalization with overlap
     ethr =  4.65E-08,  avg # of iterations =  3.3

     total cpu time spent up to now is       39.1 secs

     total energy              =    -324.04294786 Ry
     estimated scf accuracy    <       0.00000058 Ry

     iteration # 33     ecut=   150.00 Ry     beta= 0.70
     Davidson diagonalization with overlap
     ethr =  1.33E-09,  avg # of iterations =  5.7

     total cpu time spent up to now is       40.6 secs

     total energy              =    -324.04294852 Ry
     estimated scf accuracy    <       0.00000210 Ry

     iteration # 34     ecut=   150.00 Ry     beta= 0.70
     Davidson diagonalization with overlap
     ethr =  1.33E-09,  avg # of iterations =  1.0

     total cpu time spent up to now is       41.6 secs

     total energy              =    -324.04294838 Ry
     estimated scf accuracy    <       0.00000175 Ry

     iteration # 35     ecut=   150.00 Ry     beta= 0.70
     Davidson diagonalization with overlap
     ethr =  1.33E-09,  avg # of iterations =  3.0

     total cpu time spent up to now is       42.7 secs

     total energy              =    -324.04294843 Ry
     estimated scf accuracy    <       0.00000007 Ry

     iteration # 36     ecut=   150.00 Ry     beta= 0.70
     Davidson diagonalization with overlap
     ethr =  1.69E-10,  avg # of iterations =  5.0

     total cpu time spent up to now is       44.0 secs

     total energy              =    -324.04294845 Ry
     estimated scf accuracy    <       0.00000004 Ry

     iteration # 37     ecut=   150.00 Ry     beta= 0.70
     Davidson diagonalization with overlap
     ethr =  8.20E-11,  avg # of iterations =  1.2

     total cpu time spent up to now is       45.0 secs

     End of self-consistent calculation

          k = 0.0000 0.0000 0.0000 ( 13463 PWs)   bands (ev):

   -49.0528 -24.1912 -24.0027 -24.0027  -8.9018  -7.8461  -7.5244  -4.4634
    -4.4634  -4.4014  -4.3742  -4.3405   4.0321   6.4640   6.4640   7.1355
     8.0256   8.0256   8.3782   8.4555   9.1047   9.1047

          k = 0.0000 0.0000 0.2244 ( 13416 PWs)   bands (ev):

   -49.0526 -24.2022 -24.0023 -24.0023  -8.7835  -7.8287  -7.5072  -4.4737
    -4.4737  -4.3880  -4.3734  -4.3691   3.4130   6.4311   6.4311   7.2612
     8.0327   8.0327   8.4136   8.6928   9.1449   9.1449

          k = 0.0000 0.0000-0.4488 ( 13336 PWs)   bands (ev):

   -49.0525 -24.2132 -24.0020 -24.0020  -8.6583  -7.8110  -7.4943  -4.4839
    -4.4839  -4.3979  -4.3743  -4.3726   2.9606   6.3891   6.3891   6.7887
     8.0676   8.0676   8.3729   9.1711   9.1711   9.8169

          k = 0.0000 0.2500 0.0000 ( 13418 PWs)   bands (ev):

   -49.0519 -24.1894 -24.0422 -24.0013  -8.6432  -7.8163  -7.5115  -4.4925
    -4.4593  -4.4039  -4.3627  -4.2942   3.5010   6.2414   6.7009   6.7123
     8.0765   8.2928   8.4350   8.4526   8.4687   9.3565

          k = 0.0000 0.2500 0.2244 ( 13402 PWs)   bands (ev):

   -49.0518 -24.2002 -24.0418 -24.0010  -8.5469  -7.8044  -7.4790  -4.4804
    -4.4704  -4.4040  -4.3615  -4.2935   3.1389   6.0493   6.6942   6.8792
     7.7916   8.0211   8.0912   8.5713   8.7957   9.6491

          k = 0.0000 0.2500-0.4488 ( 13412 PWs)   bands (ev):

   -49.0516 -24.2110 -24.0414 -24.0007  -8.4507  -7.7908  -7.4446  -4.4815
    -4.4694  -4.4041  -4.3615  -4.2902   2.8292   5.8088   6.6581   6.8578
     7.5779   7.9136   8.0433   8.6369   9.0674   9.8451

          k = 0.0000-0.5000 0.0000 ( 13408 PWs)   bands (ev):

   -49.0510 -24.1873 -24.0817 -24.0000  -8.3533  -7.7830  -7.5255  -4.4940
    -4.4550  -4.4333  -4.3084  -4.2908   3.1092   5.7402   7.0040   7.2369
     7.3862   7.5430   8.2406   8.3347   8.4860  10.5909

          k = 0.0000-0.5000 0.2244 ( 13400 PWs)   bands (ev):

   -49.0509 -24.1979 -24.0811 -23.9997  -8.3055  -7.7576  -7.4684  -4.4738
    -4.4670  -4.4343  -4.3041  -4.2614   2.9156   5.6762   6.7412   6.9901
     7.3364   7.3755   8.0904   8.3845   8.8349  10.1795

          k = 0.0000-0.5000-0.4488 ( 13448 PWs)   bands (ev):

   -49.0507 -24.2086 -24.0805 -23.9993  -8.2675  -7.7319  -7.3970  -4.4790
    -4.4532  -4.4352  -4.3179  -4.2144   2.7387   5.5085   6.3094   7.0310
     7.1796   7.5221   7.7380   8.4800   9.4403   9.6189

          k = 0.2500 0.2500 0.0000 ( 13384 PWs)   bands (ev):

   -49.0510 -24.1875 -24.0409 -24.0406  -8.3835  -7.7822  -7.5266  -4.4631
    -4.4620  -4.4062  -4.3198  -4.2688   3.1458   6.2946   6.3509   6.9045
     7.3285   7.4733   8.4611   8.5006   9.1949   9.6761

          k = 0.2500 0.2500 0.2244 ( 13406 PWs)   bands (ev):

   -49.0509 -24.1983 -24.0404 -24.0402  -8.2995  -7.7824  -7.4835  -4.4661
    -4.4354  -4.4029  -4.3156  -4.2585   3.0522   6.0052   6.0131   6.5404
     7.3469   7.3578   8.5627   8.8995   9.2321   9.4566

          k = 0.2500 0.2500-0.4488 ( 13418 PWs)   bands (ev):

   -49.0507 -24.2090 -24.0400 -24.0399  -8.2199  -7.7826  -7.4323  -4.4672
    -4.4098  -4.3939  -4.3153  -4.2500   2.9252   5.7336   5.8619   6.3936
     6.8981   7.3226   8.8636   9.1186   9.1734   9.3282

          k = 0.2500-0.5000 0.0000 ( 13402 PWs)   bands (ev):

   -49.0502 -24.1854 -24.0800 -24.0392  -8.0880  -7.7489  -7.5680  -4.4480
    -4.4351  -4.3767  -4.2854  -4.2771   2.8272   5.7630   6.5183   6.7055
     7.4649   7.5367   7.6850   8.6106   9.3284   9.7328

          k = 0.2500-0.5000 0.2244 ( 13434 PWs)   bands (ev):

   -49.0500 -24.1960 -24.0795 -24.0388  -8.0431  -7.7443  -7.5039  -4.4394
    -4.4134  -4.3705  -4.2714  -4.2460   2.9290   5.7054   5.8405   6.0946
     6.8975   7.5962   8.4166   8.8632   9.1960   9.3818

          k = 0.2500-0.5000-0.4488 ( 13436 PWs)   bands (ev):

   -49.0499 -24.2066 -24.0790 -24.0385  -8.0143  -7.7398  -7.4189  -4.4372
    -4.3809  -4.3691  -4.2694  -4.2020   3.0218   5.4926   5.4931   5.8215
     6.5496   7.3192   8.1573   9.1340   9.2990   9.5644

          k =-0.5000-0.5000 0.0000 ( 13440 PWs)   bands (ev):

   -49.0493 -24.1832 -24.0782 -24.0782  -7.7163  -7.7163  -7.7050  -4.4168
    -4.3519  -4.3050  -4.3050  -4.2752   2.5103   5.5410   6.2214   7.1152
     7.1152   7.6501   7.6501   8.2496   8.5615   9.9976

          k =-0.5000-0.5000 0.2244 ( 13404 PWs)   bands (ev):

   -49.0491 -24.1938 -24.0779 -24.0779  -7.7329  -7.7329  -7.5754  -4.3890
    -4.3507  -4.2793  -4.2553  -4.2553   2.8039   5.5057   5.9636   5.9636
     6.2251   7.3670   7.5192   8.9550   8.9550   9.9869

          k =-0.5000-0.5000-0.4488 ( 13416 PWs)   bands (ev):

   -49.0490 -24.2044 -24.0775 -24.0775  -7.7491  -7.7491  -7.4407  -4.3612
    -4.3495  -4.2843  -4.2051  -4.2051   3.2079   5.4272   5.4272   5.4414
     6.2288   6.5259   6.6941   9.6232   9.6232   9.9763

     highest occupied level (ev):    10.5909

!    total energy              =    -324.04294845 Ry
     estimated scf accuracy    <          9.3E-09 Ry

     The total energy is the sum of the following terms:
     one-electron contribution =     -82.06267923 Ry
     hartree contribution      =      67.40863584 Ry
     xc contribution           =     -49.04451036 Ry
     ewald contribution        =    -260.34439469 Ry

     convergence has been achieved in  37 iterations

     Forces acting on atoms (cartesian axes, Ry/au):

     atom    1 type  1   force =     0.00000000    0.00000000    0.00065037
     atom    2 type  2   force =     0.00000000    0.00000000   -0.00018843
     atom    3 type  3   force =     0.00000000    0.00000000   -0.00360856
     atom    4 type  3   force =     0.00000000    0.00000000    0.00157331
     atom    5 type  3   force =     0.00000000    0.00000000    0.00157331

     Total force =     0.004293     Total SCF correction =     0.000038


     Computing stress (Cartesian axis) and pressure

          total   stress  (Ry/bohr**3)                   (kbar)     P=        6.48
   0.00002799   0.00000000   0.00000000            4.12        0.00        0.00
   0.00000000   0.00002799   0.00000000            0.00        4.12        0.00
   0.00000000   0.00000000   0.00007623            0.00        0.00       11.21


     BFGS Geometry Optimization
     Energy error            =      0.0E+00
     Gradient error          =      3.6E-03
     Cell gradient error     =      7.6E-05


     number of scf cycles    =   1
     number of bfgs steps    =   0

     enthalpy new            =    -324.0429484467 Ry

     new trust radius        =       0.0079249909 bohr
     new conv_thr            =       0.0000000100 Ry

     new unit-cell volume =    433.78450 a.u.^3 (    64.28023 Ang^3 )
     density =      7.82900 g/cm^3

CELL_PARAMETERS (angstrom)
   3.862700796   0.000000000   0.000000000
   0.000000000   3.862700796   0.000000000
   0.000000000   0.000000000   4.308194405

ATOMIC_POSITIONS (angstrom)
Pb            0.0000000000        0.0000000000        0.0003448169
Ti            1.9313503981        1.9313503981        2.3543784366
O             1.9313503981        1.9313503981        0.5992302000
O             0.0000000000        1.9313503981        2.7560747522
O             1.9313503981        0.0000000000        2.7560747522



     Writing output data file ./pwscf.save/
     NEW-OLD atomic charge density approx. for the potential
     extrapolated charge   44.14437, renormalised to   44.00000

     total cpu time spent up to now is       45.4 secs

     Self-consistent Calculation

     iteration #  1     ecut=   150.00 Ry     beta= 0.70
     Davidson diagonalization with overlap
     ethr =  1.00E-06,  avg # of iterations =  6.0

     total cpu time spent up to now is       47.4 secs

     total energy              =    -324.04142288 Ry
     estimated scf accuracy    <       0.01155457 Ry

     iteration #  2     ecut=   150.00 Ry     beta= 0.70
     Davidson diagonalization with overlap
     ethr =  2.63E-05,  avg # of iterations =  2.6

     total cpu time spent up to now is       48.6 secs

     total energy              =    -324.04278594 Ry
     estimated scf accuracy    <       0.00909145 Ry

     iteration #  3     ecut=   150.00 Ry     beta= 0.70
     Davidson diagonalization with overlap
     ethr =  2.07E-05,  avg # of iterations =  1.3

     total cpu time spent up to now is       49.5 secs

     total energy              =    -324.04294290 Ry
     estimated scf accuracy    <       0.00112638 Ry

     iteration #  4     ecut=   150.00 Ry     beta= 0.70
     Davidson diagonalization with overlap
     ethr =  2.56E-06,  avg # of iterations =  2.5

     total cpu time spent up to now is       50.6 secs

     total energy              =    -324.04297824 Ry
     estimated scf accuracy    <       0.00017161 Ry

     iteration #  5     ecut=   150.00 Ry     beta= 0.70
     Davidson diagonalization with overlap
     ethr =  3.90E-07,  avg # of iterations =  3.0

     total cpu time spent up to now is       51.7 secs

     total energy              =    -324.04299670 Ry
     estimated scf accuracy    <       0.00003968 Ry

     iteration #  6     ecut=   150.00 Ry     beta= 0.70
     Davidson diagonalization with overlap
     ethr =  9.02E-08,  avg # of iterations =  2.5

     total cpu time spent up to now is       52.7 secs

     total energy              =    -324.04299810 Ry
     estimated scf accuracy    <       0.00001873 Ry

     iteration #  7     ecut=   150.00 Ry     beta= 0.70
     Davidson diagonalization with overlap
     ethr =  4.26E-08,  avg # of iterations =  2.1

     total cpu time spent up to now is       53.7 secs

     total energy              =    -324.04299849 Ry
     estimated scf accuracy    <       0.00000489 Ry

     iteration #  8     ecut=   150.00 Ry     beta= 0.70
     Davidson diagonalization with overlap
     ethr =  1.11E-08,  avg # of iterations =  3.7

     total cpu time spent up to now is       54.9 secs

     total energy              =    -324.04299898 Ry
     estimated scf accuracy    <       0.00000327 Ry

     iteration #  9     ecut=   150.00 Ry     beta= 0.70
     Davidson diagonalization with overlap
     ethr =  7.44E-09,  avg # of iterations =  1.6

     total cpu time spent up to now is       55.9 secs

     total energy              =    -324.04299907 Ry
     estimated scf accuracy    <       0.00000012 Ry

     iteration # 10     ecut=   150.00 Ry     beta= 0.70
     Davidson diagonalization with overlap
     ethr =  2.74E-10,  avg # of iterations =  5.7

     total cpu time spent up to now is       57.5 secs

     total energy              =    -324.04299917 Ry
     estimated scf accuracy    <       0.00000024 Ry

     iteration # 11     ecut=   150.00 Ry     beta= 0.70
     Davidson diagonalization with overlap
     ethr =  2.74E-10,  avg # of iterations =  1.2

     total cpu time spent up to now is       58.5 secs

     total energy              =    -324.04299917 Ry
     estimated scf accuracy    <       0.00000003 Ry

     iteration # 12     ecut=   150.00 Ry     beta= 0.70
     Davidson diagonalization with overlap
     ethr =  6.81E-11,  avg # of iterations =  2.6

     total cpu time spent up to now is       59.6 secs

     End of self-consistent calculation

          k = 0.0000 0.0000 0.0000 ( 13463 PWs)   bands (ev):

   -49.1265 -24.2544 -24.0737 -24.0737  -8.9389  -7.8882  -7.5643  -4.5179
    -4.5179  -4.4563  -4.4288  -4.3964   3.9767   6.4204   6.4204   7.0842
     7.9915   7.9915   8.3366   8.4065   9.0574   9.0574

          k = 0.0000 0.0000 0.2240 ( 13416 PWs)   bands (ev):

   -49.1263 -24.2652 -24.0734 -24.0734  -8.8224  -7.8711  -7.5481  -4.5279
    -4.5279  -4.4433  -4.4280  -4.4244   3.3664   6.3888   6.3888   7.2146
     7.9981   7.9981   8.3650   8.6409   9.0964   9.0964

          k = 0.0000 0.0000-0.4480 ( 13336 PWs)   bands (ev):

   -49.1262 -24.2758 -24.0731 -24.0731  -8.6991  -7.8538  -7.5363  -4.5379
    -4.5379  -4.4526  -4.4300  -4.4272   2.9196   6.3483   6.3483   6.7496
     8.0321   8.0321   8.3247   9.1215   9.1215   9.7513

          k = 0.0000 0.2498 0.0000 ( 13418 PWs)   bands (ev):

   -49.1256 -24.2527 -24.1127 -24.0724  -8.6818  -7.8596  -7.5514  -4.5467
    -4.5138  -4.4583  -4.4180  -4.3503   3.4518   6.1955   6.6599   6.6683
     8.0406   8.2496   8.3904   8.4089   8.4228   9.3077

          k = 0.0000 0.2498 0.2240 ( 13402 PWs)   bands (ev):

   -49.1255 -24.2632 -24.1123 -24.0721  -8.5870  -7.8478  -7.5200  -4.5347
    -4.5247  -4.4583  -4.4169  -4.3496   3.0943   6.0076   6.6509   6.8373
     7.7514   7.9858   8.0468   8.5256   8.7501   9.5954

          k = 0.0000 0.2498-0.4480 ( 13412 PWs)   bands (ev):

   -49.1253 -24.2737 -24.1119 -24.0717  -8.4922  -7.8346  -7.4868  -4.5355
    -4.5237  -4.4584  -4.4171  -4.3464   2.7884   5.7715   6.6161   6.8166
     7.5395   7.8680   8.0074   8.5897   9.0233   9.7856

          k = 0.0000-0.4997 0.0000 ( 13408 PWs)   bands (ev):

   -49.1247 -24.2506 -24.1516 -24.0711  -8.3931  -7.8282  -7.5648  -4.5482
    -4.5096  -4.4874  -4.3642  -4.3467   3.0633   5.6981   6.9704   7.1973
     7.3377   7.4901   8.2107   8.2875   8.4413  10.5358

          k = 0.0000-0.4997 0.2240 ( 13400 PWs)   bands (ev):

   -49.1246 -24.2609 -24.1511 -24.0707  -8.3462  -7.8033  -7.5090  -4.5283
    -4.5213  -4.4883  -4.3599  -4.3180   2.8724   5.6345   6.7024   6.9545
     7.2904   7.3342   8.0452   8.3486   8.7858  10.1276

          k = 0.0000-0.4997-0.4480 ( 13448 PWs)   bands (ev):

   -49.1245 -24.2713 -24.1506 -24.0704  -8.3088  -7.7780  -7.4394  -4.5330
    -4.5080  -4.4892  -4.3736  -4.2718   2.6978   5.4702   6.2747   6.9940
     7.1370   7.4789   7.6940   8.4414   9.3832   9.5762

          k = 0.2498 0.2498 0.0000 ( 13384 PWs)   bands (ev):

   -49.1248 -24.2509 -24.1114 -24.1111  -8.4237  -7.8263  -7.5666  -4.5173
    -4.5165  -4.4607  -4.3752  -4.3251   3.1017   6.2487   6.3062   6.8610
     7.2874   7.4417   8.4132   8.4547   9.1496   9.6274

          k = 0.2498 0.2498 0.2240 ( 13406 PWs)   bands (ev):

   -49.1246 -24.2613 -24.1109 -24.1108  -8.3412  -7.8265  -7.5245  -4.5201
    -4.4903  -4.4574  -4.3711  -4.3150   3.0090   5.9670   5.9751   6.4961
     7.3046   7.3189   8.5196   8.8525   9.1870   9.4064

          k = 0.2498 0.2498-0.4480 ( 13418 PWs)   bands (ev):

   -49.1245 -24.2717 -24.1105 -24.1104  -8.2630  -7.8268  -7.4746  -4.5211
    -4.4647  -4.4490  -4.3708  -4.3066   2.8839   5.6994   5.8240   6.3546
     6.8561   7.2809   8.8264   9.0711   9.1182   9.2835

          k = 0.2498-0.4997 0.0000 ( 13402 PWs)   bands (ev):

   -49.1239 -24.2488 -24.1500 -24.1098  -8.1294  -7.7946  -7.6078  -4.5025
    -4.4896  -4.4312  -4.3411  -4.3332   2.7869   5.7201   6.4717   6.6683
     7.4228   7.4921   7.6516   8.5636   9.2818   9.6749

          k = 0.2498-0.4997 0.2240 ( 13434 PWs)   bands (ev):

   -49.1237 -24.2591 -24.1495 -24.1094  -8.0859  -7.7901  -7.5447  -4.4937
    -4.4686  -4.4249  -4.3276  -4.3026   2.8877   5.6636   5.8076   6.0554
     6.8557   7.5579   8.3665   8.8197   9.1469   9.3352

          k = 0.2498-0.4997-0.4480 ( 13436 PWs)   bands (ev):

   -49.1236 -24.2694 -24.1491 -24.1090  -8.0576  -7.7857  -7.4614  -4.4915
    -4.4368  -4.4233  -4.3257  -4.2595   2.9800   5.4585   5.4611   5.7797
     6.5128   7.2793   8.1084   9.0912   9.2523   9.5177

          k =-0.4997-0.4997 0.0000 ( 13440 PWs)   bands (ev):

   -49.1230 -24.2466 -24.1483 -24.1483  -7.7625  -7.7625  -7.7424  -4.4718
    -4.4066  -4.3610  -4.3610  -4.3298   2.4749   5.4972   6.1793   7.0809
     7.0809   7.6079   7.6079   8.2019   8.4960   9.9488

          k =-0.4997-0.4997 0.2240 ( 13404 PWs)   bands (ev):

   -49.1229 -24.2569 -24.1479 -24.1479  -7.7787  -7.7787  -7.6152  -4.4446
    -4.4054  -4.3338  -4.3121  -4.3121   2.7667   5.4609   5.9331   5.9331
     6.1829   7.3283   7.4625   8.9097   8.9097   9.9384

          k =-0.4997-0.4997-0.4480 ( 13416 PWs)   bands (ev):

   -49.1227 -24.2672 -24.1475 -24.1475  -7.7947  -7.7947  -7.4832  -4.4173
    -4.4042  -4.3386  -4.2628  -4.2628   3.1673   5.3955   5.3996   5.3996
     6.1866   6.4774   6.6631   9.5765   9.5765   9.9280

     highest occupied level (ev):    10.5358

!    total energy              =    -324.04299917 Ry
     estimated scf accuracy    <          1.5E-09 Ry

     The total energy is the sum of the following terms:
     one-electron contribution =     -82.45512441 Ry
     hartree contribution      =      67.51413418 Ry
     xc contribution           =     -49.03132309 Ry
     ewald contribution        =    -260.07068585 Ry

     convergence has been achieved in  12 iterations

     Forces acting on atoms (cartesian axes, Ry/au):

     atom    1 type  1   force =     0.00000000    0.00000000   -0.00014101
     atom    2 type  2   force =     0.00000000    0.00000000   -0.00378281
     atom    3 type  3   force =     0.00000000    0.00000000    0.00192803
     atom    4 type  3   force =     0.00000000    0.00000000    0.00099790
     atom    5 type  3   force =     0.00000000    0.00000000    0.00099790

     Total force =     0.004476     Total SCF correction =     0.000046


     Computing stress (Cartesian axis) and pressure

          total   stress  (Ry/bohr**3)                   (kbar)     P=       -0.24
  -0.00001020   0.00000000   0.00000000           -1.50        0.00        0.00
   0.00000000  -0.00001020   0.00000000            0.00       -1.50        0.00
   0.00000000   0.00000000   0.00001553            0.00        0.00        2.28

     Energy error            =      5.1E-05
     Gradient error          =      3.8E-03
     Cell gradient error     =      1.6E-05


     number of scf cycles    =   2
     number of bfgs steps    =   1

     enthalpy old            =    -324.0429484467 Ry
     enthalpy new            =    -324.0429991700 Ry

     CASE: enthalpy_new < enthalpy_old

     new trust radius        =       0.0039857254 bohr
     new conv_thr            =       0.0000000051 Ry

     new unit-cell volume =    434.11854 a.u.^3 (    64.32973 Ang^3 )
     density =      7.82297 g/cm^3

CELL_PARAMETERS (angstrom)
   3.862412673   0.000000000   0.000000000
   0.000000000   3.862412673   0.000000000
   0.000000000   0.000000000   4.312155184

ATOMIC_POSITIONS (angstrom)
Pb            0.0000000000        0.0000000000        0.0003613213
Ti            1.9312063363        1.9312063363        2.3544318626
O             1.9312063363        1.9312063363        0.6003224049
O             0.0000000000        1.9312063363        2.7593853806
O             1.9312063363        0.0000000000        2.7593853806



     Writing output data file ./pwscf.save/
     NEW-OLD atomic charge density approx. for the potential
     extrapolated charge   44.03369, renormalised to   44.00000

     total cpu time spent up to now is       59.9 secs

     Self-consistent Calculation

     iteration #  1     ecut=   150.00 Ry     beta= 0.70
     Davidson diagonalization with overlap
     ethr =  1.00E-06,  avg # of iterations =  5.0

     total cpu time spent up to now is       61.5 secs

     total energy              =    -324.04295313 Ry
     estimated scf accuracy    <       0.00194872 Ry

     iteration #  2     ecut=   150.00 Ry     beta= 0.70
     Davidson diagonalization with overlap
     ethr =  4.43E-06,  avg # of iterations =  1.4

     total cpu time spent up to now is       62.5 secs

     total energy              =    -324.04299213 Ry
     estimated scf accuracy    <       0.00047975 Ry

     iteration #  3     ecut=   150.00 Ry     beta= 0.70
     Davidson diagonalization with overlap
     ethr =  1.09E-06,  avg # of iterations =  2.0

     total cpu time spent up to now is       63.6 secs

     total energy              =    -324.04301859 Ry
     estimated scf accuracy    <       0.00006776 Ry

     iteration #  4     ecut=   150.00 Ry     beta= 0.70
     Davidson diagonalization with overlap
     ethr =  1.54E-07,  avg # of iterations =  2.0

     total cpu time spent up to now is       64.6 secs

     total energy              =    -324.04302227 Ry
     estimated scf accuracy    <       0.00000536 Ry

     iteration #  5     ecut=   150.00 Ry     beta= 0.70
     Davidson diagonalization with overlap
     ethr =  1.22E-08,  avg # of iterations =  4.9

     total cpu time spent up to now is       66.0 secs

     total energy              =    -324.04302323 Ry
     estimated scf accuracy    <       0.00000303 Ry

     iteration #  6     ecut=   150.00 Ry     beta= 0.70
     Davidson diagonalization with overlap
     ethr =  6.89E-09,  avg # of iterations =  1.9

     total cpu time spent up to now is       67.0 secs

     total energy              =    -324.04302336 Ry
     estimated scf accuracy    <       0.00000038 Ry

     iteration #  7     ecut=   150.00 Ry     beta= 0.70
     Davidson diagonalization with overlap
     ethr =  8.65E-10,  avg # of iterations =  4.7

     total cpu time spent up to now is       68.4 secs

     total energy              =    -324.04302344 Ry
     estimated scf accuracy    <       0.00000026 Ry

     iteration #  8     ecut=   150.00 Ry     beta= 0.70
     Davidson diagonalization with overlap
     ethr =  5.85E-10,  avg # of iterations =  1.5

     total cpu time spent up to now is       69.4 secs

     total energy              =    -324.04302345 Ry
     estimated scf accuracy    <       0.00000003 Ry

     iteration #  9     ecut=   150.00 Ry     beta= 0.70
     Davidson diagonalization with overlap
     ethr =  6.70E-11,  avg # of iterations =  5.4

     total cpu time spent up to now is       70.8 secs

     total energy              =    -324.04302345 Ry
     estimated scf accuracy    <       0.00000008 Ry

     iteration # 10     ecut=   150.00 Ry     beta= 0.70
     Davidson diagonalization with overlap
     ethr =  6.70E-11,  avg # of iterations =  3.6

     total cpu time spent up to now is       71.9 secs

     total energy              =    -324.04302345 Ry
     estimated scf accuracy    <          5.1E-09 Ry

     iteration # 11     ecut=   150.00 Ry     beta= 0.70
     Davidson diagonalization with overlap
     ethr =  1.17E-11,  avg # of iterations =  4.6

     total cpu time spent up to now is       73.1 secs

     total energy              =    -324.04302345 Ry
     estimated scf accuracy    <          5.9E-09 Ry

     iteration # 12     ecut=   150.00 Ry     beta= 0.70
     Davidson diagonalization with overlap
     ethr =  1.17E-11,  avg # of iterations =  4.4

     total cpu time spent up to now is       74.3 secs

     End of self-consistent calculation

          k = 0.0000 0.0000 0.0000 ( 13463 PWs)   bands (ev):

   -49.1354 -24.2669 -24.0827 -24.0827  -8.9465  -7.8943  -7.5766  -4.5305
    -4.5305  -4.4689  -4.4416  -4.4097   3.9620   6.4116   6.4116   7.0737
     7.9691   7.9691   8.3148   8.3928   9.0505   9.0505

          k = 0.0000 0.0000 0.2238 ( 13416 PWs)   bands (ev):

   -49.1352 -24.2774 -24.0824 -24.0824  -8.8299  -7.8773  -7.5618  -4.5405
    -4.5405  -4.4561  -4.4408  -4.4376   3.3527   6.3768   6.3768   7.2055
     7.9817   7.9817   8.3516   8.6234   9.0887   9.0887

          k = 0.0000 0.0000-0.4476 ( 13336 PWs)   bands (ev):

   -49.1351 -24.2880 -24.0821 -24.0821  -8.7064  -7.8601  -7.5516  -4.5503
    -4.5503  -4.4656  -4.4430  -4.4400   2.9063   6.3335   6.3335   6.7441
     8.0207   8.0207   8.3115   9.1132   9.1132   9.7343

          k = 0.0000 0.2498 0.0000 ( 13418 PWs)   bands (ev):

   -49.1345 -24.2651 -24.1216 -24.0814  -8.6897  -7.8666  -7.5637  -4.5593
    -4.5264  -4.4710  -4.4306  -4.3634   3.4396   6.1859   6.6478   6.6599
     8.0191   8.2405   8.3713   8.4012   8.4104   9.2932

          k = 0.0000 0.2498 0.2238 ( 13402 PWs)   bands (ev):

   -49.1343 -24.2755 -24.1212 -24.0810  -8.5948  -7.8550  -7.5337  -4.5475
    -4.5372  -4.4711  -4.4296  -4.3626   3.0823   5.9971   6.6393   6.8264
     7.7420   7.9709   8.0378   8.5163   8.7352   9.5813

          k = 0.0000 0.2498-0.4476 ( 13412 PWs)   bands (ev):

   -49.1342 -24.2859 -24.1208 -24.0807  -8.4997  -7.8420  -7.5021  -4.5479
    -4.5365  -4.4712  -4.4300  -4.3593   2.7767   5.7600   6.6017   6.8110
     7.5308   7.8611   7.9969   8.5805   9.0064   9.7733

          k = 0.0000-0.4997 0.0000 ( 13408 PWs)   bands (ev):

   -49.1336 -24.2630 -24.1605 -24.0801  -8.4006  -7.8371  -7.5771  -4.5608
    -4.5222  -4.5002  -4.3767  -4.3597   3.0519   5.6945   6.9595   7.1924
     7.3280   7.4773   8.1912   8.2765   8.4209  10.5210

          k = 0.0000-0.4997 0.2238 ( 13400 PWs)   bands (ev):

   -49.1335 -24.2732 -24.1599 -24.0797  -8.3534  -7.8124  -7.5228  -4.5411
    -4.5338  -4.5011  -4.3728  -4.3308   2.8617   5.6289   6.6939   6.9461
     7.2749   7.3287   8.0335   8.3339   8.7720  10.1135

          k = 0.0000-0.4997-0.4476 ( 13448 PWs)   bands (ev):

   -49.1333 -24.2834 -24.1594 -24.0794  -8.3156  -7.7874  -7.4549  -4.5454
    -4.5210  -4.5020  -4.3864  -4.2848   2.6877   5.4615   6.2707   6.9868
     7.1206   7.4727   7.6867   8.4298   9.3706   9.5600

          k = 0.2498 0.2498 0.0000 ( 13384 PWs)   bands (ev):

   -49.1336 -24.2633 -24.1203 -24.1200  -8.4322  -7.8339  -7.5789  -4.5300
    -4.5290  -4.4734  -4.3879  -4.3381   3.0921   6.2364   6.2996   6.8515
     7.2763   7.4238   8.4058   8.4373   9.1422   9.6103

          k = 0.2498 0.2498 0.2238 ( 13406 PWs)   bands (ev):

   -49.1335 -24.2736 -24.1198 -24.1197  -8.3497  -7.8342  -7.5382  -4.5328
    -4.5030  -4.4702  -4.3839  -4.3280   2.9984   5.9573   5.9657   6.4868
     7.2946   7.3111   8.5045   8.8397   9.1784   9.3923

          k = 0.2498 0.2498-0.4476 ( 13418 PWs)   bands (ev):

   -49.1333 -24.2838 -24.1194 -24.1193  -8.2711  -7.8345  -7.4899  -4.5338
    -4.4775  -4.4619  -4.3836  -4.3196   2.8729   5.6895   5.8149   6.3465
     6.8495   7.2765   8.8100   9.0608   9.1079   9.2705

          k = 0.2498-0.4997 0.0000 ( 13402 PWs)   bands (ev):

   -49.1327 -24.2612 -24.1588 -24.1186  -8.1382  -7.8037  -7.6199  -4.5151
    -4.5022  -4.4441  -4.3537  -4.3461   2.7789   5.7160   6.4642   6.6534
     7.4161   7.4794   7.6374   8.5471   9.2729   9.6605

          k = 0.2498-0.4997 0.2238 ( 13434 PWs)   bands (ev):

   -49.1326 -24.2713 -24.1583 -24.1183  -8.0942  -7.7993  -7.5583  -4.5065
    -4.4812  -4.4378  -4.3406  -4.3154   2.8788   5.6580   5.7995   6.0458
     6.8493   7.5482   8.3551   8.8035   9.1322   9.3262

          k = 0.2498-0.4997-0.4476 ( 13436 PWs)   bands (ev):

   -49.1325 -24.2815 -24.1579 -24.1179  -8.0655  -7.7949  -7.4766  -4.5042
    -4.4497  -4.4363  -4.3386  -4.2726   2.9703   5.4500   5.4548   5.7721
     6.5082   7.2752   8.0982   9.0746   9.2452   9.5001

          k =-0.4997-0.4997 0.0000 ( 13440 PWs)   bands (ev):

   -49.1319 -24.2590 -24.1571 -24.1571  -7.7717  -7.7717  -7.7551  -4.4842
    -4.4194  -4.3736  -4.3736  -4.3428   2.4692   5.4918   6.1798   7.0624
     7.0624   7.6016   7.6016   8.1862   8.4804   9.9420

          k =-0.4997-0.4997 0.2238 ( 13404 PWs)   bands (ev):

   -49.1317 -24.2692 -24.1567 -24.1567  -7.7879  -7.7879  -7.6291  -4.4572
    -4.4182  -4.3469  -4.3250  -4.3250   2.7600   5.4550   5.9239   5.9239
     6.1834   7.3187   7.4494   8.8940   8.8940   9.9317

          k =-0.4997-0.4997-0.4476 ( 13416 PWs)   bands (ev):

   -49.1316 -24.2793 -24.1564 -24.1564  -7.8039  -7.8039  -7.4983  -4.4302
    -4.4171  -4.3518  -4.2761  -4.2761   3.1591   5.3888   5.3926   5.3926
     6.1870   6.4671   6.6585   9.5591   9.5591   9.9213

     highest occupied level (ev):    10.5210

!    total energy              =    -324.04302346 Ry
     estimated scf accuracy    <          1.6E-09 Ry

     The total energy is the sum of the following terms:
     one-electron contribution =     -82.57962941 Ry
     hartree contribution      =      67.55788374 Ry
     xc contribution           =     -49.03008661 Ry
     ewald contribution        =    -259.99119118 Ry

     convergence has been achieved in  12 iterations

     Forces acting on atoms (cartesian axes, Ry/au):

     atom    1 type  1   force =     0.00000000    0.00000000   -0.00072185
     atom    2 type  2   force =     0.00000000    0.00000000   -0.00248373
     atom    3 type  3   force =     0.00000000    0.00000000    0.00166764
     atom    4 type  3   force =     0.00000000    0.00000000    0.00076897
     atom    5 type  3   force =     0.00000000    0.00000000    0.00076897

     Total force =     0.003264     Total SCF correction =     0.000023


     Computing stress (Cartesian axis) and pressure

          total   stress  (Ry/bohr**3)                   (kbar)     P=       -0.85
  -0.00001686   0.00000000   0.00000000           -2.48        0.00        0.00
   0.00000000  -0.00001686   0.00000000            0.00       -2.48        0.00
   0.00000000   0.00000000   0.00001649            0.00        0.00        2.43

     Energy error            =      2.4E-05
     Gradient error          =      2.5E-03
     Cell gradient error     =      1.7E-05


     number of scf cycles    =   3
     number of bfgs steps    =   2

     enthalpy old            =    -324.0429991700 Ry
     enthalpy new            =    -324.0430234551 Ry

     CASE: enthalpy_new < enthalpy_old


     WARNING: bfgs curvature condition failed, Theta= 0.997
     new trust radius        =       0.0043883287 bohr
     new conv_thr            =       0.0000000024 Ry

     new unit-cell volume =    434.35467 a.u.^3 (    64.36472 Ang^3 )
     density =      7.81872 g/cm^3

CELL_PARAMETERS (angstrom)
   3.861430308   0.000000000   0.000000000
   0.000000000   3.861430308   0.000000000
   0.000000000   0.000000000   4.316696266

ATOMIC_POSITIONS (angstrom)
Pb            0.0000000000        0.0000000000        0.0001095987
Ti            1.9307151539        1.9307151539        2.3549603090
O             1.9307151539        1.9307151539        0.6015568930
O             0.0000000000        1.9307151539        2.7630916521
O             1.9307151539        0.0000000000        2.7630916521



     Writing output data file ./pwscf.save/
     NEW-OLD atomic charge density approx. for the potential
     extrapolated charge   44.02380, renormalised to   44.00000

     total cpu time spent up to now is       74.7 secs

     Self-consistent Calculation

     iteration #  1     ecut=   150.00 Ry     beta= 0.70
     Davidson diagonalization with overlap
     ethr =  1.00E-06,  avg # of iterations =  4.3

     total cpu time spent up to now is       76.2 secs

     total energy              =    -324.04300561 Ry
     estimated scf accuracy    <       0.00167649 Ry

     iteration #  2     ecut=   150.00 Ry     beta= 0.70
     Davidson diagonalization with overlap
     ethr =  3.81E-06,  avg # of iterations =  1.0

     total cpu time spent up to now is       77.2 secs

     total energy              =    -324.04302723 Ry
     estimated scf accuracy    <       0.00031370 Ry

     iteration #  3     ecut=   150.00 Ry     beta= 0.70
     Davidson diagonalization with overlap
     ethr =  7.13E-07,  avg # of iterations =  2.0

     total cpu time spent up to now is       78.3 secs

     total energy              =    -324.04304183 Ry
     estimated scf accuracy    <       0.00005844 Ry

     iteration #  4     ecut=   150.00 Ry     beta= 0.70
     Davidson diagonalization with overlap
     ethr =  1.33E-07,  avg # of iterations =  2.0

     total cpu time spent up to now is       79.3 secs

     total energy              =    -324.04304561 Ry
     estimated scf accuracy    <       0.00000418 Ry

     iteration #  5     ecut=   150.00 Ry     beta= 0.70
     Davidson diagonalization with overlap
     ethr =  9.50E-09,  avg # of iterations =  4.4

     total cpu time spent up to now is       80.7 secs

     total energy              =    -324.04304647 Ry
     estimated scf accuracy    <       0.00000127 Ry

     iteration #  6     ecut=   150.00 Ry     beta= 0.70
     Davidson diagonalization with overlap
     ethr =  2.90E-09,  avg # of iterations =  3.8

     total cpu time spent up to now is       81.9 secs

     total energy              =    -324.04304660 Ry
     estimated scf accuracy    <       0.00000053 Ry

     iteration #  7     ecut=   150.00 Ry     beta= 0.70
     Davidson diagonalization with overlap
     ethr =  1.21E-09,  avg # of iterations =  2.9

     total cpu time spent up to now is       83.0 secs

     total energy              =    -324.04304663 Ry
     estimated scf accuracy    <       0.00000017 Ry

     iteration #  8     ecut=   150.00 Ry     beta= 0.70
     Davidson diagonalization with overlap
     ethr =  3.79E-10,  avg # of iterations =  2.3

     total cpu time spent up to now is       84.1 secs

     total energy              =    -324.04304664 Ry
     estimated scf accuracy    <       0.00000010 Ry

     iteration #  9     ecut=   150.00 Ry     beta= 0.70
     Davidson diagonalization with overlap
     ethr =  2.20E-10,  avg # of iterations =  2.6

     total cpu time spent up to now is       85.1 secs

     total energy              =    -324.04304664 Ry
     estimated scf accuracy    <       0.00000003 Ry

     iteration # 10     ecut=   150.00 Ry     beta= 0.70
     Davidson diagonalization with overlap
     ethr =  7.00E-11,  avg # of iterations =  2.7

     total cpu time spent up to now is       86.2 secs

     End of self-consistent calculation

          k = 0.0000 0.0000 0.0000 ( 13463 PWs)   bands (ev):

   -49.1405 -24.2748 -24.0882 -24.0882  -8.9530  -7.8991  -7.5851  -4.5389
    -4.5389  -4.4771  -4.4498  -4.4189   3.9502   6.4050   6.4050   7.0664
     7.9512   7.9512   8.2970   8.3808   9.0463   9.0463

          k = 0.0000 0.0000 0.2236 ( 13416 PWs)   bands (ev):

   -49.1404 -24.2853 -24.0879 -24.0879  -8.8366  -7.8823  -7.5716  -4.5487
    -4.5487  -4.4646  -4.4491  -4.4465   3.3419   6.3671   6.3671   7.2012
     7.9696   7.9696   8.3400   8.6085   9.0837   9.0837

          k = 0.0000 0.0000-0.4471 ( 13336 PWs)   bands (ev):

   -49.1403 -24.2957 -24.0876 -24.0876  -8.7131  -7.8652  -7.5629  -4.5585
    -4.5585  -4.4744  -4.4517  -4.4483   2.8962   6.3213   6.3213   6.7438
     8.0137   8.0137   8.3004   9.1075   9.1075   9.7195

          k = 0.0000 0.2499 0.0000 ( 13418 PWs)   bands (ev):

   -49.1397 -24.2730 -24.1272 -24.0869  -8.6962  -7.8722  -7.5722  -4.5678
    -4.5348  -4.4793  -4.4388  -4.3721   3.4306   6.1779   6.6374   6.6535
     8.0017   8.2345   8.3552   8.3967   8.4006   9.2834

          k = 0.0000 0.2499 0.2236 ( 13402 PWs)   bands (ev):

   -49.1395 -24.2833 -24.1268 -24.0866  -8.6014  -7.8608  -7.5435  -4.5561
    -4.5454  -4.4794  -4.4380  -4.3711   3.0734   5.9886   6.6299   6.8181
     7.7362   7.9600   8.0316   8.5101   8.7231   9.5712

          k = 0.0000 0.2499-0.4471 ( 13412 PWs)   bands (ev):

   -49.1394 -24.2935 -24.1264 -24.0863  -8.5063  -7.8479  -7.5133  -4.5560
    -4.5452  -4.4795  -4.4384  -4.3677   2.7680   5.7512   6.5899   6.8086
     7.5256   7.8566   7.9902   8.5740   8.9929   9.7644

          k = 0.0000-0.4998 0.0000 ( 13408 PWs)   bands (ev):

   -49.1388 -24.2709 -24.1661 -24.0856  -8.4065  -7.8443  -7.5855  -4.5692
    -4.5305  -4.5085  -4.3848  -4.3682   3.0437   5.6920   6.9505   7.1892
     7.3196   7.4666   8.1771   8.2675   8.4038  10.5122

          k = 0.0000-0.4998 0.2236 ( 13400 PWs)   bands (ev):

   -49.1387 -24.2810 -24.1655 -24.0853  -8.3593  -7.8198  -7.5325  -4.5496
    -4.5420  -4.5094  -4.3812  -4.3391   2.8540   5.6246   6.6878   6.9400
     7.2625   7.3246   8.0248   8.3239   8.7599  10.1055

          k = 0.0000-0.4998-0.4471 ( 13448 PWs)   bands (ev):

   -49.1385 -24.2911 -24.1650 -24.0849  -8.3213  -7.7950  -7.4661  -4.5535
    -4.5298  -4.5104  -4.3948  -4.2934   2.6805   5.4548   6.2691   6.9819
     7.1076   7.4678   7.6824   8.4225   9.3594   9.5506

          k = 0.2499 0.2499 0.0000 ( 13384 PWs)   bands (ev):

   -49.1388 -24.2712 -24.1258 -24.1256  -8.4391  -7.8401  -7.5873  -4.5385
    -4.5371  -4.4818  -4.3960  -4.3466   3.0854   6.2261   6.2943   6.8435
     7.2676   7.4102   8.4001   8.4236   9.1376   9.5986

          k = 0.2499 0.2499 0.2236 ( 13406 PWs)   bands (ev):

   -49.1387 -24.2814 -24.1254 -24.1252  -8.3567  -7.8404  -7.5479  -4.5413
    -4.5113  -4.4786  -4.3921  -4.3366   2.9908   5.9496   5.9581   6.4799
     7.2879   7.3064   8.4928   8.8292   9.1727   9.3832

          k = 0.2499 0.2499-0.4471 ( 13418 PWs)   bands (ev):

   -49.1385 -24.2915 -24.1250 -24.1249  -8.2781  -7.8407  -7.5011  -4.5423
    -4.4860  -4.4706  -4.3919  -4.3282   2.8647   5.6817   5.8081   6.3411
     6.8461   7.2747   8.7987   9.0529   9.1010   9.2610

          k = 0.2499-0.4998 0.0000 ( 13402 PWs)   bands (ev):

   -49.1379 -24.2691 -24.1644 -24.1242  -8.1449  -7.8110  -7.6281  -4.5233
    -4.5105  -4.4524  -4.3617  -4.3545   2.7737   5.7132   6.4579   6.6409
     7.4105   7.4688   7.6277   8.5338   9.2670   9.6504

          k = 0.2499-0.4998 0.2236 ( 13434 PWs)   bands (ev):

   -49.1378 -24.2791 -24.1639 -24.1239  -8.1008  -7.8066  -7.5678  -4.5149
    -4.4896  -4.4463  -4.3490  -4.3237   2.8727   5.6540   5.7933   6.0381
     6.8455   7.5425   8.3459   8.7907   9.1219   9.3200

          k = 0.2499-0.4998-0.4471 ( 13436 PWs)   bands (ev):

   -49.1376 -24.2892 -24.1635 -24.1235  -8.0720  -7.8024  -7.4878  -4.5127
    -4.4583  -4.4449  -4.3471  -4.2812   2.9632   5.4438   5.4500   5.7666
     6.5067   7.2741   8.0928   9.0619   9.2406   9.4857

          k =-0.4998-0.4998 0.0000 ( 13440 PWs)   bands (ev):

   -49.1371 -24.2669 -24.1627 -24.1627  -7.7792  -7.7792  -7.7633  -4.4922
    -4.4278  -4.3817  -4.3817  -4.3512   2.4660   5.4881   6.1808   7.0478
     7.0478   7.5964   7.5964   8.1743   8.4670   9.9381

          k =-0.4998-0.4998 0.2236 ( 13404 PWs)   bands (ev):

   -49.1369 -24.2770 -24.1623 -24.1623  -7.7953  -7.7953  -7.6387  -4.4655
    -4.4266  -4.3554  -4.3335  -4.3335   2.7555   5.4508   5.9177   5.9177
     6.1844   7.3134   7.4393   8.8810   8.8810   9.9278

          k =-0.4998-0.4998-0.4471 ( 13416 PWs)   bands (ev):

   -49.1368 -24.2869 -24.1620 -24.1620  -7.8111  -7.8111  -7.5094  -4.4388
    -4.4255  -4.3603  -4.2849  -4.2849   3.1524   5.3839   5.3885   5.3885
     6.1880   6.4609   6.6583   9.5450   9.5450   9.9176

     highest occupied level (ev):    10.5122

!    total energy              =    -324.04304664 Ry
     estimated scf accuracy    <          2.5E-10 Ry

     The total energy is the sum of the following terms:
     one-electron contribution =     -82.68791481 Ry
     hartree contribution      =      67.59940214 Ry
     xc contribution           =     -49.02968949 Ry
     ewald contribution        =    -259.92484448 Ry

     convergence has been achieved in  10 iterations

     Forces acting on atoms (cartesian axes, Ry/au):

     atom    1 type  1   force =     0.00000000    0.00000000   -0.00107994
     atom    2 type  2   force =     0.00000000    0.00000000   -0.00142200
     atom    3 type  3   force =     0.00000000    0.00000000    0.00155275
     atom    4 type  3   force =     0.00000000    0.00000000    0.00047459
     atom    5 type  3   force =     0.00000000    0.00000000    0.00047459

     Total force =     0.002460     Total SCF correction =     0.000031


     Computing stress (Cartesian axis) and pressure

          total   stress  (Ry/bohr**3)                   (kbar)     P=       -1.02
  -0.00001906   0.00000000   0.00000000           -2.80        0.00        0.00
   0.00000000  -0.00001906   0.00000000            0.00       -2.80        0.00
   0.00000000   0.00000000   0.00001742            0.00        0.00        2.56

     Energy error            =      2.3E-05
     Gradient error          =      1.6E-03
     Cell gradient error     =      1.9E-05


     number of scf cycles    =   4
     number of bfgs steps    =   3

     enthalpy old            =    -324.0430234551 Ry
     enthalpy new            =    -324.0430466427 Ry

     CASE: enthalpy_new < enthalpy_old

     new trust radius        =       0.0065773565 bohr
     new conv_thr            =       0.0000000023 Ry

     new unit-cell volume =    434.63443 a.u.^3 (    64.40618 Ang^3 )
     density =      7.81369 g/cm^3

CELL_PARAMETERS (angstrom)
   3.859629647   0.000000000   0.000000000
   0.000000000   3.859629647   0.000000000
   0.000000000   0.000000000   4.323507890

ATOMIC_POSITIONS (angstrom)
Pb            0.0000000000        0.0000000000       -0.0004851381
Ti            1.9298148234        1.9298148234        2.3562230265
O             1.9298148234        1.9298148234        0.6034911581
O             0.0000000000        1.9298148234        2.7684833453
O             1.9298148234        0.0000000000        2.7684833453



     Writing output data file ./pwscf.save/
     NEW-OLD atomic charge density approx. for the potential
     extrapolated charge   44.02818, renormalised to   44.00000

     total cpu time spent up to now is       86.6 secs

     Self-consistent Calculation

     iteration #  1     ecut=   150.00 Ry     beta= 0.70
     Davidson diagonalization with overlap
     ethr =  1.00E-06,  avg # of iterations =  5.0

     total cpu time spent up to now is       88.3 secs

     total energy              =    -324.04301253 Ry
     estimated scf accuracy    <       0.00291533 Ry

     iteration #  2     ecut=   150.00 Ry     beta= 0.70
     Davidson diagonalization with overlap
     ethr =  6.63E-06,  avg # of iterations =  1.0

     total cpu time spent up to now is       89.3 secs

     total energy              =    -324.04304450 Ry
     estimated scf accuracy    <       0.00050932 Ry

     iteration #  3     ecut=   150.00 Ry     beta= 0.70
     Davidson diagonalization with overlap
     ethr =  1.16E-06,  avg # of iterations =  2.0

     total cpu time spent up to now is       90.4 secs

     total energy              =    -324.04306652 Ry
     estimated scf accuracy    <       0.00010278 Ry

     iteration #  4     ecut=   150.00 Ry     beta= 0.70
     Davidson diagonalization with overlap
     ethr =  2.34E-07,  avg # of iterations =  2.0

     total cpu time spent up to now is       91.5 secs

     total energy              =    -324.04307385 Ry
     estimated scf accuracy    <       0.00000688 Ry

     iteration #  5     ecut=   150.00 Ry     beta= 0.70
     Davidson diagonalization with overlap
     ethr =  1.56E-08,  avg # of iterations =  4.3

     total cpu time spent up to now is       92.8 secs

     total energy              =    -324.04307517 Ry
     estimated scf accuracy    <       0.00000219 Ry

     iteration #  6     ecut=   150.00 Ry     beta= 0.70
     Davidson diagonalization with overlap
     ethr =  4.98E-09,  avg # of iterations =  3.5

     total cpu time spent up to now is       94.0 secs

     total energy              =    -324.04307540 Ry
     estimated scf accuracy    <       0.00000112 Ry

     iteration #  7     ecut=   150.00 Ry     beta= 0.70
     Davidson diagonalization with overlap
     ethr =  2.55E-09,  avg # of iterations =  2.8

     total cpu time spent up to now is       95.1 secs

     total energy              =    -324.04307545 Ry
     estimated scf accuracy    <       0.00000038 Ry

     iteration #  8     ecut=   150.00 Ry     beta= 0.70
     Davidson diagonalization with overlap
     ethr =  8.62E-10,  avg # of iterations =  2.3

     total cpu time spent up to now is       96.1 secs

     total energy              =    -324.04307545 Ry
     estimated scf accuracy    <       0.00000020 Ry

     iteration #  9     ecut=   150.00 Ry     beta= 0.70
     Davidson diagonalization with overlap
     ethr =  4.51E-10,  avg # of iterations =  2.4

     total cpu time spent up to now is       97.2 secs

     total energy              =    -324.04307546 Ry
     estimated scf accuracy    <       0.00000005 Ry

     iteration # 10     ecut=   150.00 Ry     beta= 0.70
     Davidson diagonalization with overlap
     ethr =  1.24E-10,  avg # of iterations =  2.7

     total cpu time spent up to now is       98.2 secs

     End of self-consistent calculation

          k = 0.0000 0.0000 0.0000 ( 13463 PWs)   bands (ev):

   -49.1461 -24.2832 -24.0945 -24.0945  -8.9616  -7.9055  -7.5949  -4.5485
    -4.5485  -4.4865  -4.4591  -4.4296   3.9348   6.3969   6.3969   7.0579
     7.9294   7.9294   8.2745   8.3650   9.0419   9.0419

          k = 0.0000 0.0000 0.2232 ( 13416 PWs)   bands (ev):

   -49.1459 -24.2935 -24.0942 -24.0942  -8.8457  -7.8889  -7.5831  -4.5581
    -4.5581  -4.4743  -4.4584  -4.4569   3.3282   6.3550   6.3550   7.1979
     7.9554   7.9554   8.3249   8.5890   9.0780   9.0780

          k = 0.0000 0.0000-0.4464 ( 13336 PWs)   bands (ev):

   -49.1458 -24.3036 -24.0939 -24.0939  -8.7226  -7.8721  -7.5763  -4.5677
    -4.5677  -4.4845  -4.4618  -4.4577   2.8836   6.3060   6.3060   6.7463
     8.0060   8.0060   8.2860   9.1005   9.1005   9.6994

          k = 0.0000 0.2500 0.0000 ( 13418 PWs)   bands (ev):

   -49.1452 -24.2814 -24.1336 -24.0932  -8.7047  -7.8796  -7.5820  -4.5775
    -4.5443  -4.4888  -4.4481  -4.3821   3.4194   6.1673   6.6237   6.6456
     7.9803   8.2274   8.3346   8.3883   8.3920   9.2726

          k = 0.0000 0.2500 0.2232 ( 13402 PWs)   bands (ev):

   -49.1450 -24.2915 -24.1332 -24.0929  -8.6104  -7.8684  -7.5549  -4.5660
    -4.5548  -4.4889  -4.4474  -4.3810   3.0623   5.9778   6.6182   6.8078
     7.7298   7.9472   8.0245   8.5028   8.7078   9.5591

          k = 0.0000 0.2500-0.4464 ( 13412 PWs)   bands (ev):

   -49.1449 -24.3015 -24.1328 -24.0926  -8.5155  -7.8558  -7.5267  -4.5652
    -4.5552  -4.4890  -4.4481  -4.3774   2.7573   5.7404   6.5751   6.8066
     7.5202   7.8512   7.9826   8.5663   8.9763   9.7531

          k = 0.0000-0.5000 0.0000 ( 13408 PWs)   bands (ev):

   -49.1443 -24.2793 -24.1726 -24.0919  -8.4143  -7.8535  -7.5950  -4.5788
    -4.5400  -4.5180  -4.3937  -4.3779   3.0341   5.6883   6.9385   7.1851
     7.3083   7.4529   8.1612   8.2557   8.3819  10.5033

          k = 0.0000-0.5000 0.2232 ( 13400 PWs)   bands (ev):

   -49.1442 -24.2892 -24.1721 -24.0916  -8.3673  -7.8294  -7.5437  -4.5596
    -4.5514  -4.5190  -4.3908  -4.3484   2.8448   5.6187   6.6801   6.9324
     7.2471   7.3193   8.0143   8.3127   8.7436  10.0978

          k = 0.0000-0.5000-0.4464 ( 13448 PWs)   bands (ev):

   -49.1440 -24.2990 -24.1715 -24.0913  -8.3292  -7.8050  -7.4793  -4.5626
    -4.5400  -4.5199  -4.4042  -4.3031   2.6718   5.4463   6.2676   6.9760
     7.0918   7.4612   7.6780   8.4146   9.3437   9.5418

          k = 0.2500 0.2500 0.0000 ( 13384 PWs)   bands (ev):

   -49.1443 -24.2796 -24.1322 -24.1320  -8.4478  -7.8481  -7.5970  -4.5482
    -4.5465  -4.4912  -4.4051  -4.3563   3.0776   6.2126   6.2870   6.8326
     7.2567   7.3938   8.3926   8.4063   9.1325   9.5855

          k = 0.2500 0.2500 0.2232 ( 13406 PWs)   bands (ev):

   -49.1442 -24.2895 -24.1318 -24.1317  -8.3658  -7.8484  -7.5592  -4.5509
    -4.5209  -4.4881  -4.4014  -4.3463   2.9816   5.9396   5.9486   6.4713
     7.2800   7.3009   8.4780   8.8159   9.1664   9.3731

          k = 0.2500 0.2500-0.4464 ( 13418 PWs)   bands (ev):

   -49.1440 -24.2994 -24.1314 -24.1313  -8.2875  -7.8488  -7.5144  -4.5519
    -4.4957  -4.4805  -4.4012  -4.3379   2.8546   5.6723   5.7997   6.3348
     6.8428   7.2728   8.7860   9.0427   9.0928   9.2498

          k = 0.2500-0.5000 0.0000 ( 13402 PWs)   bands (ev):

   -49.1434 -24.2774 -24.1709 -24.1306  -8.1533  -7.8204  -7.6376  -4.5327
    -4.5199  -4.4620  -4.3706  -4.3639   2.7680   5.7093   6.4491   6.6247
     7.4025   7.4551   7.6167   8.5167   9.2603   9.6385

          k = 0.2500-0.5000 0.2232 ( 13434 PWs)   bands (ev):

   -49.1433 -24.2873 -24.1705 -24.1303  -8.1095  -7.8162  -7.5789  -4.5245
    -4.4991  -4.4560  -4.3586  -4.3330   2.8655   5.6486   5.7853   6.0283
     6.8410   7.5363   8.3338   8.7746   9.1099   9.3129

          k = 0.2500-0.5000-0.4464 ( 13436 PWs)   bands (ev):

   -49.1432 -24.2971 -24.1700 -24.1300  -8.0805  -7.8120  -7.5009  -4.5223
    -4.4682  -4.4546  -4.3566  -4.2909   2.9544   5.4362   5.4439   5.7597
     6.5058   7.2737   8.0878   9.0464   9.2353   9.4675

          k =-0.5000-0.5000 0.0000 ( 13440 PWs)   bands (ev):

   -49.1426 -24.2753 -24.1692 -24.1692  -7.7888  -7.7888  -7.7723  -4.5013
    -4.4372  -4.3907  -4.3907  -4.3605   2.4627   5.4832   6.1815   7.0302
     7.0302   7.5890   7.5890   8.1593   8.4490   9.9339

          k =-0.5000-0.5000 0.2232 ( 13404 PWs)   bands (ev):

   -49.1424 -24.2851 -24.1689 -24.1689  -7.8048  -7.8048  -7.6497  -4.4750
    -4.4361  -4.3648  -4.3430  -4.3430   2.7501   5.4453   5.9105   5.9105
     6.1850   7.3080   7.4266   8.8641   8.8641   9.9238

          k =-0.5000-0.5000-0.4464 ( 13416 PWs)   bands (ev):

   -49.1423 -24.2948 -24.1685 -24.1685  -7.8205  -7.8205  -7.5224  -4.4486
    -4.4350  -4.3700  -4.2950  -4.2950   3.1433   5.3778   5.3843   5.3843
     6.1886   6.4544   6.6601   9.5272   9.5272   9.9137

     highest occupied level (ev):    10.5033

!    total energy              =    -324.04307547 Ry
     estimated scf accuracy    <          1.2E-09 Ry

     The total energy is the sum of the following terms:
     one-electron contribution =     -82.83581745 Ry
     hartree contribution      =      67.65855402 Ry
     xc contribution           =     -49.02958526 Ry
     ewald contribution        =    -259.83622679 Ry

     convergence has been achieved in  10 iterations

     Forces acting on atoms (cartesian axes, Ry/au):

     atom    1 type  1   force =     0.00000000    0.00000000   -0.00147440
     atom    2 type  2   force =     0.00000000    0.00000000   -0.00009099
     atom    3 type  3   force =     0.00000000    0.00000000    0.00146712
     atom    4 type  3   force =     0.00000000    0.00000000    0.00004914
     atom    5 type  3   force =     0.00000000    0.00000000    0.00004914

     Total force =     0.002083     Total SCF correction =     0.000032


     Computing stress (Cartesian axis) and pressure

          total   stress  (Ry/bohr**3)                   (kbar)     P=       -1.02
  -0.00001923   0.00000000   0.00000000           -2.83        0.00        0.00
   0.00000000  -0.00001923   0.00000000            0.00       -2.83        0.00
   0.00000000   0.00000000   0.00001764            0.00        0.00        2.59

     Energy error            =      2.9E-05
     Gradient error          =      1.5E-03
     Cell gradient error     =      1.9E-05


     number of scf cycles    =   5
     number of bfgs steps    =   4

     enthalpy old            =    -324.0430466427 Ry
     enthalpy new            =    -324.0430754680 Ry

     CASE: enthalpy_new < enthalpy_old

     new trust radius        =       0.0098536627 bohr
     new conv_thr            =       0.0000000029 Ry

     new unit-cell volume =    434.99827 a.u.^3 (    64.46009 Ang^3 )
     density =      7.80715 g/cm^3

CELL_PARAMETERS (angstrom)
   3.856690362   0.000000000   0.000000000
   0.000000000   3.856690362   0.000000000
   0.000000000   0.000000000   4.333725325

ATOMIC_POSITIONS (angstrom)
Pb            0.0000000000        0.0000000000       -0.0016904475
Ti            1.9283451808        1.9283451808        2.3587161442
O             1.9283451808        1.9283451808        0.6066155198
O             0.0000000000        1.9283451808        2.7763164845
O             1.9283451808        0.0000000000        2.7763164845



     Writing output data file ./pwscf.save/
     NEW-OLD atomic charge density approx. for the potential
     extrapolated charge   44.03662, renormalised to   44.00000

     total cpu time spent up to now is       98.6 secs

     Self-consistent Calculation

     iteration #  1     ecut=   150.00 Ry     beta= 0.70
     Davidson diagonalization with overlap
     ethr =  1.00E-06,  avg # of iterations =  5.0

     total cpu time spent up to now is      100.4 secs

     total energy              =    -324.04299331 Ry
     estimated scf accuracy    <       0.00514547 Ry

     iteration #  2     ecut=   150.00 Ry     beta= 0.70
     Davidson diagonalization with overlap
     ethr =  1.17E-05,  avg # of iterations =  1.0

     total cpu time spent up to now is      101.4 secs

     total energy              =    -324.04305237 Ry
     estimated scf accuracy    <       0.00093139 Ry

     iteration #  3     ecut=   150.00 Ry     beta= 0.70
     Davidson diagonalization with overlap
     ethr =  2.12E-06,  avg # of iterations =  2.0

     total cpu time spent up to now is      102.5 secs

     total energy              =    -324.04309087 Ry
     estimated scf accuracy    <       0.00017062 Ry

     iteration #  4     ecut=   150.00 Ry     beta= 0.70
     Davidson diagonalization with overlap
     ethr =  3.88E-07,  avg # of iterations =  2.0

     total cpu time spent up to now is      103.5 secs

     total energy              =    -324.04310393 Ry
     estimated scf accuracy    <       0.00001253 Ry

     iteration #  5     ecut=   150.00 Ry     beta= 0.70
     Davidson diagonalization with overlap
     ethr =  2.85E-08,  avg # of iterations =  4.5

     total cpu time spent up to now is      104.9 secs

     total energy              =    -324.04310729 Ry
     estimated scf accuracy    <       0.00000443 Ry

     iteration #  6     ecut=   150.00 Ry     beta= 0.70
     Davidson diagonalization with overlap
     ethr =  1.01E-08,  avg # of iterations =  2.8

     total cpu time spent up to now is      106.1 secs

     total energy              =    -324.04310764 Ry
     estimated scf accuracy    <       0.00000206 Ry

     iteration #  7     ecut=   150.00 Ry     beta= 0.70
     Davidson diagonalization with overlap
     ethr =  4.68E-09,  avg # of iterations =  2.9

     total cpu time spent up to now is      107.1 secs

     total energy              =    -324.04310774 Ry
     estimated scf accuracy    <       0.00000049 Ry

     iteration #  8     ecut=   150.00 Ry     beta= 0.70
     Davidson diagonalization with overlap
     ethr =  1.11E-09,  avg # of iterations =  2.9

     total cpu time spent up to now is      108.2 secs

     total energy              =    -324.04310777 Ry
     estimated scf accuracy    <       0.00000026 Ry

     iteration #  9     ecut=   150.00 Ry     beta= 0.70
     Davidson diagonalization with overlap
     ethr =  5.91E-10,  avg # of iterations =  1.3

     total cpu time spent up to now is      109.2 secs

     total energy              =    -324.04310777 Ry
     estimated scf accuracy    <       0.00000006 Ry

     iteration # 10     ecut=   150.00 Ry     beta= 0.70
     Davidson diagonalization with overlap
     ethr =  1.45E-10,  avg # of iterations =  4.3

     total cpu time spent up to now is      110.3 secs

     total energy              =    -324.04310778 Ry
     estimated scf accuracy    <          7.3E-09 Ry

     iteration # 11     ecut=   150.00 Ry     beta= 0.70
     Davidson diagonalization with overlap
     ethr =  1.67E-11,  avg # of iterations =  4.9

     total cpu time spent up to now is      111.6 secs

     total energy              =    -324.04310778 Ry
     estimated scf accuracy    <          7.9E-09 Ry

     iteration # 12     ecut=   150.00 Ry     beta= 0.70
     Davidson diagonalization with overlap
     ethr =  1.67E-11,  avg # of iterations =  2.3

     total cpu time spent up to now is      112.7 secs

     End of self-consistent calculation

          k = 0.0000 0.0000 0.0000 ( 13463 PWs)   bands (ev):

   -49.1532 -24.2931 -24.1033 -24.1033  -8.9740  -7.9152  -7.6073  -4.5606
    -4.5606  -4.4983  -4.4708  -4.4435   3.9131   6.3859   6.3859   7.0476
     7.9015   7.9015   8.2444   8.3430   9.0361   9.0361

          k = 0.0000 0.0000 0.2227 ( 13416 PWs)   bands (ev):

   -49.1530 -24.3030 -24.1030 -24.1030  -8.8591  -7.8989  -7.5977  -4.5700
    -4.5700  -4.4867  -4.4704  -4.4701   3.3095   6.3389   6.3389   7.1957
     7.9377   7.9377   8.3041   8.5618   9.0702   9.0702

          k = 0.0000 0.0000-0.4453 ( 13336 PWs)   bands (ev):

   -49.1529 -24.3128 -24.1027 -24.1027  -8.7368  -7.8825  -7.5935  -4.5793
    -4.5793  -4.4974  -4.4747  -4.4694   2.8667   6.2859   6.2859   6.7522
     7.9966   7.9966   8.2662   9.0909   9.0909   9.6708

          k = 0.0000 0.2502 0.0000 ( 13418 PWs)   bands (ev):

   -49.1523 -24.2912 -24.1426 -24.1020  -8.7169  -7.8905  -7.5941  -4.5899
    -4.5564  -4.5006  -4.4597  -4.3948   3.4044   6.1518   6.6046   6.6348
     7.9527   8.2178   8.3063   8.3718   8.3861   9.2598

          k = 0.0000 0.2502 0.2227 ( 13402 PWs)   bands (ev):

   -49.1521 -24.3010 -24.1422 -24.1017  -8.6234  -7.8796  -7.5692  -4.5786
    -4.5666  -4.5007  -4.4594  -4.3934   3.0475   5.9628   6.6024   6.7936
     7.7215   7.9309   8.0150   8.4930   8.6870   9.5434

          k = 0.0000 0.2502-0.4453 ( 13412 PWs)   bands (ev):

   -49.1520 -24.3107 -24.1418 -24.1014  -8.5291  -7.8674  -7.5436  -4.5767
    -4.5681  -4.5008  -4.4604  -4.3896   2.7432   5.7262   6.5556   6.8040
     7.5135   7.8438   7.9732   8.5555   8.9544   9.7375

          k = 0.0000-0.5004 0.0000 ( 13408 PWs)   bands (ev):

   -49.1514 -24.2891 -24.1817 -24.1007  -8.4256  -7.8665  -7.6069  -4.5911
    -4.5521  -4.5300  -4.4047  -4.3901   3.0217   5.6819   6.9210   7.1790
     7.2916   7.4337   8.1424   8.2393   8.3522  10.4935

          k = 0.0000-0.5004 0.2227 ( 13400 PWs)   bands (ev):

   -49.1513 -24.2986 -24.1812 -24.1003  -8.3791  -7.8429  -7.5576  -4.5723
    -4.5631  -4.5309  -4.4028  -4.3600   2.8329   5.6095   6.6694   6.9216
     7.2269   7.3112   8.0002   8.2990   8.7205  10.0898

          k = 0.0000-0.5004-0.4453 ( 13448 PWs)   bands (ev):

   -49.1511 -24.3082 -24.1807 -24.1000  -8.3411  -7.8190  -7.4960  -4.5741
    -4.5531  -4.5319  -4.4161  -4.3153   2.6606   5.4344   6.2649   6.9678
     7.0718   7.4509   7.6724   8.4046   9.3203   9.5332

          k = 0.2502 0.2502 0.0000 ( 13384 PWs)   bands (ev):

   -49.1514 -24.2894 -24.1412 -24.1409  -8.4600  -7.8597  -7.6091  -4.5605
    -4.5582  -4.5031  -4.4164  -4.3686   3.0673   6.1938   6.2759   6.8167
     7.2419   7.3730   8.3815   8.3826   9.1259   9.5697

          k = 0.2502 0.2502 0.2227 ( 13406 PWs)   bands (ev):

   -49.1513 -24.2990 -24.1408 -24.1406  -8.3790  -7.8601  -7.5734  -4.5632
    -4.5330  -4.5001  -4.4129  -4.3586   2.9692   5.9258   5.9354   6.4596
     7.2694   7.2935   8.4580   8.7974   9.1581   9.3609

          k = 0.2502 0.2502-0.4453 ( 13418 PWs)   bands (ev):

   -49.1511 -24.3086 -24.1404 -24.1403  -8.3012  -7.8606  -7.5312  -4.5642
    -4.5079  -4.4930  -4.4128  -4.3502   2.8412   5.6597   5.7881   6.3267
     6.8386   7.2697   8.7703   9.0283   9.0820   9.2355

          k = 0.2502-0.5004 0.0000 ( 13402 PWs)   bands (ev):

   -49.1505 -24.2872 -24.1800 -24.1396  -8.1650  -7.8337  -7.6495  -4.5445
    -4.5318  -4.4739  -4.3816  -4.3757   2.7607   5.7029   6.4360   6.6027
     7.3898   7.4360   7.6032   8.4930   9.2517   9.6230

          k = 0.2502-0.5004 0.2227 ( 13434 PWs)   bands (ev):

   -49.1504 -24.2967 -24.1796 -24.1392  -8.1219  -7.8296  -7.5927  -4.5367
    -4.5111  -4.4681  -4.3705  -4.3446   2.8559   5.6403   5.7740   6.0148
     6.8346   7.5285   8.3163   8.7532   9.0950   9.3037

          k = 0.2502-0.5004-0.4453 ( 13436 PWs)   bands (ev):

   -49.1502 -24.3062 -24.1792 -24.1389  -8.0930  -7.8256  -7.5174  -4.5345
    -4.4809  -4.4668  -4.3686  -4.3032   2.9426   5.4259   5.4350   5.7501
     6.5047   7.2731   8.0827   9.0264   9.2278   9.4429

          k =-0.5004-0.5004 0.0000 ( 13440 PWs)   bands (ev):

   -49.1496 -24.2850 -24.1783 -24.1783  -7.8025  -7.8025  -7.7828  -4.5127
    -4.4491  -4.4019  -4.4019  -4.3722   2.4583   5.4758   6.1803   7.0080
     7.0080   7.5771   7.5771   8.1391   8.4232   9.9285

          k =-0.5004-0.5004 0.2227 ( 13404 PWs)   bands (ev):

   -49.1495 -24.2945 -24.1780 -24.1780  -7.8182  -7.8182  -7.6630  -4.4869
    -4.4480  -4.3768  -4.3550  -4.3550   2.7425   5.4371   5.9013   5.9013
     6.1838   7.3014   7.4093   8.8409   8.8409   9.9186

          k =-0.5004-0.5004-0.4453 ( 13416 PWs)   bands (ev):

   -49.1494 -24.3039 -24.1776 -24.1776  -7.8336  -7.8336  -7.5387  -4.4611
    -4.4469  -4.3822  -4.3077  -4.3077   3.1300   5.3691   5.3793   5.3793
     6.1872   6.4469   6.6638   9.5032   9.5032   9.9087

     highest occupied level (ev):    10.4935

!    total energy              =    -324.04310778 Ry
     estimated scf accuracy    <          1.5E-10 Ry

     The total energy is the sum of the following terms:
     one-electron contribution =     -83.05312976 Ry
     hartree contribution      =      67.74799332 Ry
     xc contribution           =     -49.02986135 Ry
     ewald contribution        =    -259.70810999 Ry

     convergence has been achieved in  12 iterations

     Forces acting on atoms (cartesian axes, Ry/au):

     atom    1 type  1   force =     0.00000000    0.00000000   -0.00195026
[...]

     total energy              =    -324.03688549 Ry
     estimated scf accuracy    <       0.04445846 Ry

     iteration # 12     ecut=   150.00 Ry     beta= 0.70
     Davidson diagonalization with overlap
     ethr =  1.01E-04,  avg # of iterations =  4.2

     total cpu time spent up to now is      290.7 secs

     total energy              =    -324.04333878 Ry
     estimated scf accuracy    <       0.01235339 Ry

     iteration # 13     ecut=   150.00 Ry     beta= 0.70
     Davidson diagonalization with overlap
     ethr =  2.81E-05,  avg # of iterations =  3.6

     total cpu time spent up to now is      291.8 secs

     total energy              =    -324.04332069 Ry
     estimated scf accuracy    <       0.03408424 Ry

     iteration # 14     ecut=   150.00 Ry     beta= 0.70
     Davidson diagonalization with overlap
     ethr =  2.81E-05,  avg # of iterations =  1.0

     total cpu time spent up to now is      292.8 secs

     total energy              =    -324.04338686 Ry
     estimated scf accuracy    <       0.01712822 Ry

     iteration # 15     ecut=   150.00 Ry     beta= 0.70
     Davidson diagonalization with overlap
     ethr =  2.81E-05,  avg # of iterations =  1.0

     total cpu time spent up to now is      293.8 secs

     total energy              =    -324.04134890 Ry
     estimated scf accuracy    <       0.01546451 Ry

     iteration # 16     ecut=   150.00 Ry     beta= 0.70
     Davidson diagonalization with overlap
     ethr =  2.81E-05,  avg # of iterations =  4.9

     total cpu time spent up to now is      295.2 secs

     total energy              =    -324.04392179 Ry
     estimated scf accuracy    <       0.01675920 Ry

     iteration # 17     ecut=   150.00 Ry     beta= 0.70
     Davidson diagonalization with overlap
     ethr =  2.81E-05,  avg # of iterations =  1.0

     total cpu time spent up to now is      296.2 secs

     total energy              =    -324.04320001 Ry
     estimated scf accuracy    <       0.01808703 Ry

     iteration # 18     ecut=   150.00 Ry     beta= 0.70
     Davidson diagonalization with overlap
     ethr =  2.81E-05,  avg # of iterations =  1.0

     total cpu time spent up to now is      297.2 secs

     total energy              =    -324.04303124 Ry
     estimated scf accuracy    <       0.00909680 Ry

     iteration # 19     ecut=   150.00 Ry     beta= 0.70
     Davidson diagonalization with overlap
     ethr =  2.07E-05,  avg # of iterations =  1.0

     total cpu time spent up to now is      298.3 secs

     total energy              =    -324.04289472 Ry
     estimated scf accuracy    <       0.00492251 Ry

     iteration # 20     ecut=   150.00 Ry     beta= 0.70
     Davidson diagonalization with overlap
     ethr =  1.12E-05,  avg # of iterations =  1.3

     total cpu time spent up to now is      299.3 secs

     total energy              =    -324.04285986 Ry
     estimated scf accuracy    <       0.00206096 Ry

     iteration # 21     ecut=   150.00 Ry     beta= 0.70
     Davidson diagonalization with overlap
     ethr =  4.68E-06,  avg # of iterations =  4.8

     total cpu time spent up to now is      300.5 secs

     total energy              =    -324.04313174 Ry
     estimated scf accuracy    <       0.00040486 Ry

     iteration # 22     ecut=   150.00 Ry     beta= 0.70
     Davidson diagonalization with overlap
     ethr =  9.20E-07,  avg # of iterations =  2.5

     total cpu time spent up to now is      301.6 secs

     total energy              =    -324.04311092 Ry
     estimated scf accuracy    <       0.00038797 Ry

     iteration # 23     ecut=   150.00 Ry     beta= 0.70
     Davidson diagonalization with overlap
     ethr =  8.82E-07,  avg # of iterations =  2.4

     total cpu time spent up to now is      302.6 secs

     total energy              =    -324.04313316 Ry
     estimated scf accuracy    <       0.00000056 Ry

     iteration # 24     ecut=   150.00 Ry     beta= 0.70
     Davidson diagonalization with overlap
     ethr =  1.28E-09,  avg # of iterations = 10.1

     total cpu time spent up to now is      305.0 secs

     total energy              =    -324.04313696 Ry
     estimated scf accuracy    <       0.00017473 Ry

     iteration # 25     ecut=   150.00 Ry     beta= 0.70
     Davidson diagonalization with overlap
     ethr =  1.28E-09,  avg # of iterations =  6.7

     total cpu time spent up to now is      307.0 secs

     total energy              =    -324.04313738 Ry
     estimated scf accuracy    <       0.00002184 Ry

     iteration # 26     ecut=   150.00 Ry     beta= 0.70
     Davidson diagonalization with overlap
     ethr =  1.28E-09,  avg # of iterations =  6.2

     total cpu time spent up to now is      308.9 secs

     total energy              =    -324.04313848 Ry
     estimated scf accuracy    <       0.00000205 Ry

     iteration # 27     ecut=   150.00 Ry     beta= 0.70
     Davidson diagonalization with overlap
     ethr =  1.28E-09,  avg # of iterations =  2.3

     total cpu time spent up to now is      310.0 secs

     total energy              =    -324.04313852 Ry
     estimated scf accuracy    <       0.00000047 Ry

     iteration # 28     ecut=   150.00 Ry     beta= 0.70
     Davidson diagonalization with overlap
     ethr =  1.07E-09,  avg # of iterations =  1.0

     total cpu time spent up to now is      311.0 secs

     total energy              =    -324.04313849 Ry
     estimated scf accuracy    <       0.00000044 Ry

     iteration # 29     ecut=   150.00 Ry     beta= 0.70
     Davidson diagonalization with overlap
     ethr =  1.00E-09,  avg # of iterations =  2.3

     total cpu time spent up to now is      312.1 secs

     total energy              =    -324.04313852 Ry
     estimated scf accuracy    <       0.00000002 Ry

     iteration # 30     ecut=   150.00 Ry     beta= 0.70
     Davidson diagonalization with overlap
     ethr =  5.42E-11,  avg # of iterations =  5.0

     total cpu time spent up to now is      313.6 secs

     total energy              =    -324.04313851 Ry
     estimated scf accuracy    <       0.00000024 Ry

     iteration # 31     ecut=   150.00 Ry     beta= 0.70
     Davidson diagonalization with overlap
     ethr =  5.42E-11,  avg # of iterations =  5.5

     total cpu time spent up to now is      315.2 secs

     total energy              =    -324.04313852 Ry
     estimated scf accuracy    <          9.0E-09 Ry

     iteration # 32     ecut=   150.00 Ry     beta= 0.70
     Davidson diagonalization with overlap
     ethr =  2.06E-11,  avg # of iterations =  4.7

     total cpu time spent up to now is      316.5 secs

     total energy              =    -324.04313852 Ry
     estimated scf accuracy    <       0.00000007 Ry

     iteration # 33     ecut=   150.00 Ry     beta= 0.70
     Davidson diagonalization with overlap
     ethr =  2.06E-11,  avg # of iterations =  3.7

     total cpu time spent up to now is      317.7 secs

     total energy              =    -324.04313852 Ry
     estimated scf accuracy    <          9.3E-09 Ry

     iteration # 34     ecut=   150.00 Ry     beta= 0.70
     Davidson diagonalization with overlap
     ethr =  2.06E-11,  avg # of iterations =  2.4

     total cpu time spent up to now is      318.8 secs

     total energy              =    -324.04313852 Ry
     estimated scf accuracy    <          1.2E-09 Ry

     iteration # 35     ecut=   150.00 Ry     beta= 0.70
     Davidson diagonalization with overlap
     ethr =  2.77E-12,  avg # of iterations =  5.3

     total cpu time spent up to now is      320.4 secs

     total energy              =    -324.04313852 Ry
     estimated scf accuracy    <          5.6E-09 Ry

     iteration # 36     ecut=   150.00 Ry     beta= 0.70
     Davidson diagonalization with overlap
     ethr =  2.77E-12,  avg # of iterations =  1.1

     total cpu time spent up to now is      321.4 secs

     total energy              =    -324.04313852 Ry
     estimated scf accuracy    <          3.2E-09 Ry

     iteration # 37     ecut=   150.00 Ry     beta= 0.70
     Davidson diagonalization with overlap
     ethr =  2.77E-12,  avg # of iterations =  1.1

     total cpu time spent up to now is      322.4 secs

     total energy              =    -324.04313852 Ry
     estimated scf accuracy    <          1.7E-09 Ry

     iteration # 38     ecut=   150.00 Ry     beta= 0.70
     Davidson diagonalization with overlap
     ethr =  2.77E-12,  avg # of iterations =  1.0

     total cpu time spent up to now is      323.4 secs

     total energy              =    -324.04313852 Ry
     estimated scf accuracy    <          1.5E-09 Ry

     iteration # 39     ecut=   150.00 Ry     beta= 0.70
     Davidson diagonalization with overlap
     ethr =  2.77E-12,  avg # of iterations =  1.0

     total cpu time spent up to now is      324.4 secs

     total energy              =    -324.04313852 Ry
     estimated scf accuracy    <          1.2E-09 Ry

     iteration # 40     ecut=   150.00 Ry     beta= 0.70
     Davidson diagonalization with overlap
     ethr =  2.77E-12,  avg # of iterations =  1.0

     total cpu time spent up to now is      325.4 secs

     total energy              =    -324.04313852 Ry
     estimated scf accuracy    <          1.0E-09 Ry

     iteration # 41     ecut=   150.00 Ry     beta= 0.70
     Davidson diagonalization with overlap
     ethr =  2.30E-12,  avg # of iterations =  1.0

     total cpu time spent up to now is      326.4 secs

     total energy              =    -324.04313852 Ry
     estimated scf accuracy    <          6.3E-10 Ry

     iteration # 42     ecut=   150.00 Ry     beta= 0.70
     Davidson diagonalization with overlap
     ethr =  1.43E-12,  avg # of iterations =  1.0

     total cpu time spent up to now is      327.5 secs

     total energy              =    -324.04313852 Ry
     estimated scf accuracy    <          6.6E-10 Ry

     iteration # 43     ecut=   150.00 Ry     beta= 0.70
     Davidson diagonalization with overlap
     ethr =  1.43E-12,  avg # of iterations =  1.2

     total cpu time spent up to now is      328.5 secs

     total energy              =    -324.04313852 Ry
     estimated scf accuracy    <          1.8E-10 Ry

     iteration # 44     ecut=   150.00 Ry     beta= 0.70
     Davidson diagonalization with overlap
     ethr =  4.18E-13,  avg # of iterations =  5.1

     total cpu time spent up to now is      330.0 secs

     total energy              =    -324.04313852 Ry
     estimated scf accuracy    <          5.7E-10 Ry

     iteration # 45     ecut=   150.00 Ry     beta= 0.70
     Davidson diagonalization with overlap
     ethr =  4.18E-13,  avg # of iterations =  1.1

     total cpu time spent up to now is      331.0 secs

     total energy              =    -324.04313852 Ry
     estimated scf accuracy    <          2.5E-10 Ry

     iteration # 46     ecut=   150.00 Ry     beta= 0.70
     Davidson diagonalization with overlap
     ethr =  4.18E-13,  avg # of iterations =  1.0

     total cpu time spent up to now is      332.0 secs

     total energy              =    -324.04313852 Ry
     estimated scf accuracy    <          1.1E-10 Ry

     iteration # 47     ecut=   150.00 Ry     beta= 0.70
     Davidson diagonalization with overlap
     ethr =  2.43E-13,  avg # of iterations =  2.3

     total cpu time spent up to now is      333.1 secs

     End of self-consistent calculation

          k = 0.0000 0.0000 0.0000 ( 13625 PWs)   bands (ev):

   -49.2545 -24.3958 -24.2127 -24.2127  -9.1038  -8.0542  -7.7013  -4.6812
    -4.6812  -4.6238  -4.5904  -4.5686   3.7203   6.2666   6.2666   7.0018
     7.7467   7.7467   8.0458   8.1792   8.9231   8.9231

          k = 0.0000 0.0000 0.2197 ( 13588 PWs)   bands (ev):

   -49.2544 -24.4040 -24.2125 -24.2125  -9.0004  -8.0402  -7.6971  -4.6892
    -4.6892  -4.6142  -4.5922  -4.5898   3.1530   6.2085   6.2085   7.1729
     7.8108   7.8108   8.1459   8.3622   8.9439   8.9439

          k = 0.0000 0.0000-0.4394 ( 13536 PWs)   bands (ev):

   -49.2543 -24.4123 -24.2122 -24.2122  -8.8907  -8.0260  -7.6979  -4.6971
    -4.6971  -4.6159  -4.6043  -4.5891   2.7300   6.1483   6.1483   6.7611
     7.8912   7.8912   8.1134   8.9526   8.9526   9.4438

          k = 0.0000 0.2509 0.0000 ( 13610 PWs)   bands (ev):

   -49.2536 -24.3939 -24.2530 -24.2113  -8.8461  -8.0319  -7.6890  -4.7115
    -4.6768  -4.6201  -4.5797  -4.5130   3.2667   5.9986   6.4677   6.5106
     7.7866   8.0856   8.1121   8.2265   8.2847   9.1625

          k = 0.0000 0.2509 0.2197 ( 13600 PWs)   bands (ev):

   -49.2535 -24.4019 -24.2527 -24.2111  -8.7637  -8.0226  -7.6690  -4.7011
    -4.6855  -4.6203  -4.5815  -4.5103   2.9207   5.8255   6.4683   6.6722
     7.6042   7.8004   7.8997   8.3679   8.5235   9.4084

          k = 0.0000 0.2509-0.4394 ( 13566 PWs)   bands (ev):

   -49.2534 -24.4100 -24.2523 -24.2108  -8.6802  -8.0121  -7.6488  -4.6942
    -4.6912  -4.6205  -4.5841  -4.5060   2.6261   5.6082   6.4165   6.7272
     7.4080   7.7289   7.8604   8.4181   8.7977   9.5769

          k = 0.0000-0.5018 0.0000 ( 13620 PWs)   bands (ev):

   -49.2526 -24.3915 -24.2932 -24.2100  -8.5558  -8.0106  -7.7008  -4.7119
    -4.6723  -4.6496  -4.5117  -4.5110   2.9128   5.5533   6.7492   7.0589
     7.1305   7.2753   8.0242   8.0874   8.1518  10.3913

          k = 0.0000-0.5018 0.2197 ( 13620 PWs)   bands (ev):

   -49.2525 -24.3995 -24.2928 -24.2097  -8.5183  -7.9902  -7.6552  -4.6951
    -4.6818  -4.6505  -4.5226  -4.4720   2.7295   5.4781   6.5413   6.7796
     7.0866   7.1778   7.8726   8.1759   8.5317   9.9968

          k = 0.0000-0.5018-0.4394 ( 13640 PWs)   bands (ev):

   -49.2524 -24.4074 -24.2924 -24.2094  -8.4869  -7.9695  -7.6005  -4.6914
    -4.6779  -4.6515  -4.5348  -4.4322   2.5626   5.3118   6.1617   6.8354
     6.9429   7.3027   7.5904   8.2827   9.1244   9.4390

          k = 0.2509 0.2509 0.0000 ( 13580 PWs)   bands (ev):

   -49.2527 -24.3919 -24.2515 -24.2513  -8.5878  -8.0036  -7.7037  -4.6817
    -4.6766  -4.6228  -4.5343  -4.4848   2.9493   6.0355   6.1427   6.6660
     7.1085   7.2473   8.1997   8.2394   9.0020   9.4496

          k = 0.2509 0.2509 0.2197 ( 13582 PWs)   bands (ev):

   -49.2525 -24.3999 -24.2512 -24.2511  -8.5182  -8.0041  -7.6717  -4.6842
    -4.6537  -4.6207  -4.5320  -4.4753   2.8469   5.7897   5.8162   6.3393
     7.1581   7.1853   8.2869   8.6400   9.0290   9.2463

          k = 0.2509 0.2509-0.4394 ( 13634 PWs)   bands (ev):

   -49.2524 -24.4078 -24.2509 -24.2508  -8.4508  -8.0048  -7.6349  -4.6855
    -4.6301  -4.6162  -4.5326  -4.4669   2.7195   5.5535   5.6630   6.2284
     6.7504   7.1662   8.6388   8.8821   8.9576   9.0924

          k = 0.2509-0.5018 0.0000 ( 13594 PWs)   bands (ev):

   -49.2517 -24.3896 -24.2915 -24.2499  -8.2925  -7.9801  -7.7427  -4.6643
    -4.6501  -4.5953  -4.4925  -4.4919   2.6560   5.5784   6.2890   6.4529
     7.2241   7.2952   7.4850   8.3059   9.1304   9.4880

          k = 0.2509-0.5018 0.2197 ( 13596 PWs)   bands (ev):

   -49.2516 -24.3974 -24.2911 -24.2496  -8.2605  -7.9766  -7.6873  -4.6577
    -4.6313  -4.5920  -4.4878  -4.4582   2.7404   5.5171   5.6568   5.8910
     6.7265   7.4279   8.1395   8.5894   8.9837   9.1746

          k = 0.2509-0.5018-0.4394 ( 13608 PWs)   bands (ev):

   -49.2515 -24.4053 -24.2908 -24.2494  -8.2381  -7.9732  -7.6189  -4.6558
    -4.6049  -4.5921  -4.4858  -4.4213   2.8174   5.3198   5.3216   5.6396
     6.4249   7.1841   8.0118   8.8772   9.0931   9.2666

          k =-0.5018-0.5018 0.0000 ( 13520 PWs)   bands (ev):

   -49.2508 -24.3872 -24.2897 -24.2897  -7.9513  -7.9513  -7.8517  -4.6306
    -4.5697  -4.5106  -4.5106  -4.5002   2.3514   5.3518   6.0626   6.9011
     6.9011   7.4088   7.4088   7.9847   8.2287   9.8052

          k =-0.5018-0.5018 0.2197 ( 13608 PWs)   bands (ev):

   -49.2507 -24.3950 -24.2895 -24.2895  -7.9650  -7.9650  -7.7462  -4.6079
    -4.5688  -4.5064  -4.4688  -4.4688   2.6103   5.3163   5.8165   5.8165
     6.0655   7.2127   7.2846   8.6633   8.6633   9.7966

          k =-0.5018-0.5018-0.4394 ( 13616 PWs)   bands (ev):

   -49.2506 -24.4029 -24.2892 -24.2892  -7.9786  -7.9786  -7.6371  -4.5851
    -4.5680  -4.5135  -4.4266  -4.4266   2.9535   5.2574   5.3138   5.3138
     6.0685   6.3978   6.6173   9.3281   9.3281   9.7881

     highest occupied level (ev):    10.3913

!    total energy              =    -324.04313852 Ry
     estimated scf accuracy    <          3.0E-11 Ry

     The total energy is the sum of the following terms:
     one-electron contribution =     -85.33199409 Ry
     hartree contribution      =      68.68791684 Ry
     xc contribution           =     -49.02987305 Ry
     ewald contribution        =    -258.36918822 Ry

     convergence has been achieved in  47 iterations

     Forces acting on atoms (cartesian axes, Ry/au):

     atom    1 type  1   force =     0.00000000    0.00000000   -0.00011609
     atom    2 type  2   force =     0.00000000    0.00000000   -0.00102697
     atom    3 type  3   force =     0.00000000    0.00000000   -0.00148950
     atom    4 type  3   force =     0.00000000    0.00000000    0.00131628
     atom    5 type  3   force =     0.00000000    0.00000000    0.00131628

     Total force =     0.002598     Total SCF correction =     0.000003


     Computing stress (Cartesian axis) and pressure

          total   stress  (Ry/bohr**3)                   (kbar)     P=       -0.74
  -0.00000412   0.00000000   0.00000000           -0.61        0.00        0.00
   0.00000000  -0.00000412   0.00000000            0.00       -0.61        0.00
   0.00000000   0.00000000  -0.00000686            0.00        0.00       -1.01

 
     init_run     :      0.95s CPU      1.22s WALL (       2 calls)
     electrons    :    305.42s CPU    324.92s WALL (      18 calls)
     update_pot   :      1.08s CPU      1.10s WALL (      16 calls)
     forces       :      0.68s CPU      0.69s WALL (      18 calls)
     stress       :      4.24s CPU      4.44s WALL (      18 calls)

     Called by init_run:
     wfcinit      :      0.79s CPU      0.91s WALL (       2 calls)
     potinit      :      0.04s CPU      0.04s WALL (       2 calls)
     hinit0       :      0.06s CPU      0.20s WALL (       2 calls)

     Called by electrons:
     c_bands      :    256.19s CPU    272.18s WALL (     269 calls)
     sum_band     :     47.46s CPU     50.88s WALL (     269 calls)
     v_of_rho     :      1.11s CPU      1.13s WALL (     285 calls)
     mix_rho      :      0.55s CPU      0.58s WALL (     269 calls)

     Called by c_bands:
     init_us_2    :      1.81s CPU      1.95s WALL (   10368 calls)
     cegterg      :    250.44s CPU    266.12s WALL (    4860 calls)

     Called by *egterg:
     cdiaghg      :     11.06s CPU     11.51s WALL (   18623 calls)
     h_psi        :    233.54s CPU    248.60s WALL (   19001 calls)
     g_psi        :      0.13s CPU      0.13s WALL (   14105 calls)

     Called by h_psi:
     h_psi:calbec :      3.75s CPU      3.98s WALL (   19001 calls)
     vloc_psi     :     57.63s CPU     61.24s WALL (   19001 calls)
     add_vuspsi   :      1.12s CPU      1.18s WALL (   19001 calls)
     h_psi_meta   :    170.61s CPU    181.76s WALL (   19001 calls)

     General routines
     calbec       :      3.91s CPU      4.14s WALL (   20621 calls)
     fft          :      0.86s CPU      1.00s WALL (    3514 calls)
     ffts         :      0.11s CPU      0.11s WALL (     538 calls)
     fftw         :    262.00s CPU    279.22s WALL ( 2633336 calls)
     interpolate  :      0.00s CPU      0.00s WALL (     285 calls)
 
     Parallel routines
     fft_scatt_xy :     13.88s CPU     14.79s WALL ( 2637388 calls)
     fft_scatt_yz :    198.79s CPU    211.78s WALL ( 2637388 calls)
 
     PWSCF        :   5m12.83s CPU   5m33.43s WALL

 
   This run was terminated on:   2:43:56   8Sep2021            

=------------------------------------------------------------------------------=
   JOB DONE.
=------------------------------------------------------------------------------=
