atoms_rwcs.lmp (written by ASE) 

27 	 atoms 
4  atom types
0.0      3.8457859999999999  xlo xhi
0.0      3.8457859999999999  ylo yhi
0.0      4.3925789999999996  zlo zhi


Atoms 

     1   2                       0                       0      4.3684190000000003
     2   3      1.9228900000000002      1.9228900000000002                 2.38645
     3   1      1.9228900000000002      1.9228900000000002     0.63751000000000002
     4   1                       0      1.9228900000000002      2.8160699999999999
     5   1      1.9228900000000002                       0      2.8160699999999999
     6   4      1.6361689999999998   -0.076411999999999924      3.0294979999999998
     7   4      1.8537340000000002     0.29765100000000011      2.6192139999999995
     8   4      1.9920519999999999    -0.29765099999999967      2.6192139999999995
     9   4      2.2096179999999999    0.076411000000000007      3.0294979999999998
    10   4   -0.076411999999999924      1.6361689999999998      3.0294969999999997
    11   4    -0.29765099999999967      1.9920530000000003      2.6192139999999995
    12   4     0.29765100000000011      1.8537340000000002      2.6192139999999995
    13   4    0.076411999999999994      2.2096170000000006      3.0294979999999998
    14   4      1.7548490000000001      1.7548490000000001                0.942639
    15   4      1.7186859999999999      2.1271000000000004     0.53684299999999952
    16   4      2.1271000000000004      1.7186859999999999     0.53684299999999952
    17   4                2.090938                2.090938     0.94263799999999998
    18   4      1.9228929999999997      1.9228929999999997      2.3829960000000003
    19   4      1.9228929999999997      1.9228929999999997      2.3829960000000003
    20   4      1.9228929999999997      1.9228929999999997      2.7135709999999995
    21   4      1.9228940000000003      1.9228929999999997      2.1059749999999999
    22   4                       0                       0      4.3667689999999997
    23   4                       0                       0      4.3677269999999995
    24   4                       0                       0      4.3786350000000001
    25   4                       0                       0      4.3786350000000001
    26   4                       0                       0      4.3596909999999998
    27   4                       0                       0      4.5825359999999993
