
     Program PWSCF v.6.7MaX starts on  8Sep2021 at  3:26:36 

     This program is part of the open-source Quantum ESPRESSO suite
     for quantum simulation of materials; please cite
         "P. Giannozzi et al., J. Phys.:Condens. Matter 21 395502 (2009);
         "P. Giannozzi et al., J. Phys.:Condens. Matter 29 465901 (2017);
          URL http://www.quantum-espresso.org", 
     in publications or presentations arising from this work. More details at
     http://www.quantum-espresso.org/quote

     Parallel version (MPI), running on    80 processors

     MPI processes distributed on     8 nodes
     R & G space division:  proc/nbgrp/npool/nimage =      80
     Reading input from PbTiO3.nscf

     Current dimensions of program PWSCF are:
     Max number of different atomic species (ntypx) = 10
     Max number of k-points (npk) =  40000
     Max angular momentum in pseudopotentials (lmaxx) =  3

     Atomic positions and unit cell read from directory:
     pwscf/pbtio3.save/
     Atomic positions from file used, from input discarded
 
     Message from routine read_pp_mesh:
     mesh size missing, using the one in header
     Message from routine read_pp_mesh:
     mesh size missing, using the one in header
     Message from routine read_pp_mesh:
     mesh size missing, using the one in header

     IMPORTANT: XC functional enforced from input :
     Exchange-correlation= SCAN
                           (   0   0   0   0   0 263 267)
     Any further DFT definition will be discarded
     Please, verify this is what you really want


     Subspace diagonalization in iterative solution of the eigenvalue problem:
     a serial algorithm will be used

 
     Parallelization info
     --------------------
     sticks:   dense  smooth     PW     G-vecs:    dense   smooth      PW
     Min          31      31      9                 1357     1357     217
     Max          32      32     10                 1364     1364     222
     Sum        2537    2537    749               108817   108817   17591
 


     bravais-lattice index     =            0
     lattice parameter (alat)  =       7.2675  a.u.
     unit-cell volume          =     438.4162 (a.u.)^3
     number of atoms/cell      =            5
     number of atomic types    =            3
     number of electrons       =        44.00
     number of Kohn-Sham states=           22
     kinetic-energy cutoff     =     150.0000  Ry
     charge density cutoff     =     600.0000  Ry
     Exchange-correlation= SCAN
                           (   0   0   0   0   0 263 267)

     celldm(1)=   7.267483  celldm(2)=   0.000000  celldm(3)=   0.000000
     celldm(4)=   0.000000  celldm(5)=   0.000000  celldm(6)=   0.000000

     crystal axes: (cart. coord. in units of alat)
               a(1) = (   1.000000   0.000000   0.000000 )  
               a(2) = (   0.000000   1.000000   0.000000 )  
               a(3) = (   0.000000   0.000000   1.142180 )  

     reciprocal axes: (cart. coord. in units 2 pi/alat)
               b(1) = (  1.000000  0.000000  0.000000 )  
               b(2) = (  0.000000  1.000000  0.000000 )  
               b(3) = (  0.000000  0.000000  0.875519 )  


     PseudoPot. # 1 for O  read from file:
     /home/pinchenx/data.gpfs/softwares/QuantumEspresso/q-e-qe-6.4.1/pseudo/O_ONCV_PBE-1.2.upf
     MD5 check sum: e36c48deb68f4e355fffe4602be2c42c
     Pseudo is Norm-conserving, Zval =  6.0
     Generated using ONCVPSP code by D. R. Hamann
     Using radial grid of  602 points,  4 beta functions with: 
                l(1) =   0
                l(2) =   0
                l(3) =   1
                l(4) =   1

     PseudoPot. # 2 for Ti read from file:
     /home/pinchenx/data.gpfs/softwares/QuantumEspresso/q-e-qe-6.4.1/pseudo/Ti_ONCV_PBE-1.2.upf
     MD5 check sum: 1aea57736bd12dcfee93c97d0b9b5968
     Pseudo is Norm-conserving, Zval = 12.0
     Generated using ONCVPSP code by D. R. Hamann
     Using radial grid of  602 points,  6 beta functions with: 
                l(1) =   0
                l(2) =   0
                l(3) =   1
                l(4) =   1
                l(5) =   2
                l(6) =   2

     PseudoPot. # 3 for Pb read from file:
     /home/pinchenx/data.gpfs/softwares/QuantumEspresso/q-e-qe-6.4.1/pseudo/Pb_ONCV_PBE-1.2.upf
     MD5 check sum: 7f27c247474026287e0dbe0f3167d60b
     Pseudo is Norm-conserving, Zval = 14.0
     Generated using ONCVPSP code by D. R. Hamann
     Using radial grid of  602 points,  8 beta functions with: 
                l(1) =   0
                l(2) =   0
                l(3) =   1
                l(4) =   1
                l(5) =   2
                l(6) =   2
                l(7) =   3
                l(8) =   3

     atomic species   valence    mass     pseudopotential
        O              6.00    15.99900     O ( 1.00)
        Ti            12.00    47.86700     Ti( 1.00)
        Pb            14.00   207.20000     Pb( 1.00)

     No symmetry found



   Cartesian axes

     site n.     atom                  positions (alat units)
         1           Pb  tau(   1) = (   0.0000000   0.0000000  -0.0062823  )
         2           Ti  tau(   2) = (   0.5000000   0.5000000   0.6205353  )
         3           O   tau(   3) = (   0.5000000   0.5000000   0.1657688  )
         4           O   tau(   4) = (   0.0000000   0.5000000   0.7322471  )
         5           O   tau(   5) = (   0.5000000   0.0000000   0.7322471  )

     number of k points=    64
                       cart. coord. in units 2pi/alat
        k(    1) = (   0.0000000   0.0000000   0.0000000), wk =   0.0312500
        k(    2) = (   0.0000000   0.0000000   0.2188797), wk =   0.0312500
        k(    3) = (   0.0000000   0.0000000   0.4377595), wk =   0.0312500
        k(    4) = (   0.0000000   0.0000000   0.6566392), wk =   0.0312500
        k(    5) = (   0.0000000   0.2500000   0.0000000), wk =   0.0312500
        k(    6) = (   0.0000000   0.2500000   0.2188797), wk =   0.0312500
        k(    7) = (   0.0000000   0.2500000   0.4377595), wk =   0.0312500
        k(    8) = (   0.0000000   0.2500000   0.6566392), wk =   0.0312500
        k(    9) = (   0.0000000   0.5000000   0.0000000), wk =   0.0312500
        k(   10) = (   0.0000000   0.5000000   0.2188797), wk =   0.0312500
        k(   11) = (   0.0000000   0.5000000   0.4377595), wk =   0.0312500
        k(   12) = (   0.0000000   0.5000000   0.6566392), wk =   0.0312500
        k(   13) = (   0.0000000   0.7500000   0.0000000), wk =   0.0312500
        k(   14) = (   0.0000000   0.7500000   0.2188797), wk =   0.0312500
        k(   15) = (   0.0000000   0.7500000   0.4377595), wk =   0.0312500
        k(   16) = (   0.0000000   0.7500000   0.6566392), wk =   0.0312500
        k(   17) = (   0.2500000   0.0000000   0.0000000), wk =   0.0312500
        k(   18) = (   0.2500000   0.0000000   0.2188797), wk =   0.0312500
        k(   19) = (   0.2500000   0.0000000   0.4377595), wk =   0.0312500
        k(   20) = (   0.2500000   0.0000000   0.6566392), wk =   0.0312500
        k(   21) = (   0.2500000   0.2500000   0.0000000), wk =   0.0312500
        k(   22) = (   0.2500000   0.2500000   0.2188797), wk =   0.0312500
        k(   23) = (   0.2500000   0.2500000   0.4377595), wk =   0.0312500
        k(   24) = (   0.2500000   0.2500000   0.6566392), wk =   0.0312500
        k(   25) = (   0.2500000   0.5000000   0.0000000), wk =   0.0312500
        k(   26) = (   0.2500000   0.5000000   0.2188797), wk =   0.0312500
        k(   27) = (   0.2500000   0.5000000   0.4377595), wk =   0.0312500
        k(   28) = (   0.2500000   0.5000000   0.6566392), wk =   0.0312500
        k(   29) = (   0.2500000   0.7500000   0.0000000), wk =   0.0312500
        k(   30) = (   0.2500000   0.7500000   0.2188797), wk =   0.0312500
        k(   31) = (   0.2500000   0.7500000   0.4377595), wk =   0.0312500
        k(   32) = (   0.2500000   0.7500000   0.6566392), wk =   0.0312500
        k(   33) = (   0.5000000   0.0000000   0.0000000), wk =   0.0312500
        k(   34) = (   0.5000000   0.0000000   0.2188797), wk =   0.0312500
        k(   35) = (   0.5000000   0.0000000   0.4377595), wk =   0.0312500
        k(   36) = (   0.5000000   0.0000000   0.6566392), wk =   0.0312500
        k(   37) = (   0.5000000   0.2500000   0.0000000), wk =   0.0312500
        k(   38) = (   0.5000000   0.2500000   0.2188797), wk =   0.0312500
        k(   39) = (   0.5000000   0.2500000   0.4377595), wk =   0.0312500
        k(   40) = (   0.5000000   0.2500000   0.6566392), wk =   0.0312500
        k(   41) = (   0.5000000   0.5000000   0.0000000), wk =   0.0312500
        k(   42) = (   0.5000000   0.5000000   0.2188797), wk =   0.0312500
        k(   43) = (   0.5000000   0.5000000   0.4377595), wk =   0.0312500
        k(   44) = (   0.5000000   0.5000000   0.6566392), wk =   0.0312500
        k(   45) = (   0.5000000   0.7500000   0.0000000), wk =   0.0312500
        k(   46) = (   0.5000000   0.7500000   0.2188797), wk =   0.0312500
        k(   47) = (   0.5000000   0.7500000   0.4377595), wk =   0.0312500
        k(   48) = (   0.5000000   0.7500000   0.6566392), wk =   0.0312500
        k(   49) = (   0.7500000   0.0000000   0.0000000), wk =   0.0312500
        k(   50) = (   0.7500000   0.0000000   0.2188797), wk =   0.0312500
        k(   51) = (   0.7500000   0.0000000   0.4377595), wk =   0.0312500
        k(   52) = (   0.7500000   0.0000000   0.6566392), wk =   0.0312500
        k(   53) = (   0.7500000   0.2500000   0.0000000), wk =   0.0312500
        k(   54) = (   0.7500000   0.2500000   0.2188797), wk =   0.0312500
        k(   55) = (   0.7500000   0.2500000   0.4377595), wk =   0.0312500
        k(   56) = (   0.7500000   0.2500000   0.6566392), wk =   0.0312500
        k(   57) = (   0.7500000   0.5000000   0.0000000), wk =   0.0312500
        k(   58) = (   0.7500000   0.5000000   0.2188797), wk =   0.0312500
        k(   59) = (   0.7500000   0.5000000   0.4377595), wk =   0.0312500
        k(   60) = (   0.7500000   0.5000000   0.6566392), wk =   0.0312500
        k(   61) = (   0.7500000   0.7500000   0.0000000), wk =   0.0312500
        k(   62) = (   0.7500000   0.7500000   0.2188797), wk =   0.0312500
        k(   63) = (   0.7500000   0.7500000   0.4377595), wk =   0.0312500
        k(   64) = (   0.7500000   0.7500000   0.6566392), wk =   0.0312500

     Dense  grid:   108817 G-vectors     FFT dimensions: (  60,  60,  72)

     Estimated max dynamical RAM per process >      15.43 MB

     Estimated total dynamical RAM >       1.21 GB
     Reading meta-gga kinetic term

     The potential is recalculated from file :
     pwscf/pbtio3.save/charge-density

     Starting wfcs are random

     Band Structure Calculation
     Davidson diagonalization with overlap

     ethr =  2.27E-11,  avg # of iterations = 58.3

     total cpu time spent up to now is       57.4 secs

     End of band structure calculation

          k = 0.0000 0.0000 0.0000 ( 13625 PWs)   bands (ev):

   -49.2541 -24.3954 -24.2123 -24.2123  -9.1038  -8.0542  -7.7015  -4.6813
    -4.6813  -4.6238  -4.5904  -4.5686   3.7203   6.2666   6.2666   7.0017
     7.7465   7.7465   8.0456   8.1793   8.9230   8.9231

          k = 0.0000 0.0000 0.2189 ( 13588 PWs)   bands (ev):

   -49.2540 -24.4037 -24.2121 -24.2121  -9.0004  -8.0402  -7.6974  -4.6892
    -4.6892  -4.6143  -4.5922  -4.5898   3.1530   6.2085   6.2085   7.1727
     7.8106   7.8106   8.1459   8.3622   8.9439   8.9439

          k = 0.0000 0.0000 0.4378 ( 13536 PWs)   bands (ev):

   -49.2539 -24.4119 -24.2118 -24.2118  -8.8907  -8.0260  -7.6982  -4.6971
    -4.6971  -4.6159  -4.6044  -4.5892   2.7300   6.1483   6.1483   6.7609
     7.8911   7.8911   8.1134   8.9526   8.9526   9.4438

          k = 0.0000 0.0000 0.6566 ( 13588 PWs)   bands (ev):

   -49.2540 -24.4037 -24.2121 -24.2121  -9.0004  -8.0402  -7.6974  -4.6892
    -4.6892  -4.6143  -4.5922  -4.5898   3.1530   6.2085   6.2085   7.1727
     7.8106   7.8106   8.1459   8.3622   8.9439   8.9439

          k = 0.0000 0.2500 0.0000 ( 13610 PWs)   bands (ev):

   -49.2532 -24.3935 -24.2526 -24.2109  -8.8461  -8.0319  -7.6892  -4.7116
    -4.6768  -4.6202  -4.5798  -4.5131   3.2667   5.9987   6.4677   6.5106
     7.7865   8.0856   8.1119   8.2265   8.2846   9.1624

          k = 0.0000 0.2500 0.2189 ( 13600 PWs)   bands (ev):

   -49.2531 -24.4016 -24.2523 -24.2107  -8.7637  -8.0225  -7.6692  -4.7012
    -4.6856  -4.6204  -4.5815  -4.5103   2.9206   5.8255   6.4683   6.6722
     7.6041   7.8003   7.8997   8.3679   8.5235   9.4083

          k = 0.0000 0.2500 0.4378 ( 13566 PWs)   bands (ev):

   -49.2529 -24.4096 -24.2520 -24.2104  -8.6802  -8.0121  -7.6491  -4.6943
    -4.6912  -4.6206  -4.5841  -4.5061   2.6260   5.6082   6.4165   6.7271
     7.4079   7.7289   7.8603   8.4180   8.7976   9.5769

          k = 0.0000 0.2500 0.6566 ( 13600 PWs)   bands (ev):

   -49.2531 -24.4016 -24.2523 -24.2107  -8.7637  -8.0225  -7.6692  -4.7012
    -4.6856  -4.6204  -4.5815  -4.5103   2.9206   5.8255   6.4683   6.6722
     7.6041   7.8003   7.8997   8.3679   8.5235   9.4083

          k = 0.0000 0.5000 0.0000 ( 13620 PWs)   bands (ev):

   -49.2522 -24.3912 -24.2928 -24.2096  -8.5558  -8.0106  -7.7010  -4.7120
    -4.6723  -4.6496  -4.5118  -4.5110   2.9127   5.5534   6.7492   7.0590
     7.1305   7.2754   8.0239   8.0874   8.1516  10.3911

          k = 0.0000 0.5000 0.2189 ( 13620 PWs)   bands (ev):

   -49.2521 -24.3991 -24.2924 -24.2093  -8.5183  -7.9901  -7.6555  -4.6952
    -4.6819  -4.6506  -4.5226  -4.4720   2.7294   5.4782   6.5412   6.7796
     7.0866   7.1778   7.8725   8.1756   8.5317   9.9967

          k = 0.0000 0.5000 0.4378 ( 13640 PWs)   bands (ev):

   -49.2520 -24.4070 -24.2920 -24.2091  -8.4868  -7.9694  -7.6008  -4.6914
    -4.6779  -4.6515  -4.5349  -4.4323   2.5625   5.3118   6.1617   6.8354
     6.9429   7.3027   7.5903   8.2825   9.1244   9.4389

          k = 0.0000 0.5000 0.6566 ( 13620 PWs)   bands (ev):

   -49.2521 -24.3991 -24.2924 -24.2093  -8.5183  -7.9901  -7.6555  -4.6952
    -4.6819  -4.6506  -4.5226  -4.4720   2.7294   5.4782   6.5412   6.7796
     7.0866   7.1778   7.8725   8.1756   8.5317   9.9967

          k = 0.0000 0.7500 0.0000 ( 13610 PWs)   bands (ev):

   -49.2532 -24.3935 -24.2526 -24.2109  -8.8461  -8.0319  -7.6892  -4.7116
    -4.6768  -4.6202  -4.5798  -4.5131   3.2667   5.9987   6.4677   6.5106
     7.7865   8.0856   8.1119   8.2265   8.2846   9.1624

          k = 0.0000 0.7500 0.2189 ( 13600 PWs)   bands (ev):

   -49.2531 -24.4016 -24.2523 -24.2107  -8.7637  -8.0225  -7.6692  -4.7012
    -4.6856  -4.6204  -4.5815  -4.5103   2.9206   5.8255   6.4683   6.6722
     7.6041   7.8003   7.8997   8.3679   8.5235   9.4083

          k = 0.0000 0.7500 0.4378 ( 13566 PWs)   bands (ev):

   -49.2529 -24.4096 -24.2520 -24.2104  -8.6802  -8.0121  -7.6491  -4.6943
    -4.6912  -4.6206  -4.5841  -4.5061   2.6260   5.6082   6.4165   6.7271
     7.4079   7.7289   7.8603   8.4180   8.7976   9.5769

          k = 0.0000 0.7500 0.6566 ( 13600 PWs)   bands (ev):

   -49.2531 -24.4016 -24.2523 -24.2107  -8.7637  -8.0225  -7.6692  -4.7012
    -4.6856  -4.6204  -4.5815  -4.5103   2.9206   5.8255   6.4683   6.6722
     7.6041   7.8003   7.8997   8.3679   8.5235   9.4083

          k = 0.2500 0.0000 0.0000 ( 13610 PWs)   bands (ev):

   -49.2532 -24.3935 -24.2526 -24.2109  -8.8461  -8.0319  -7.6892  -4.7116
    -4.6768  -4.6202  -4.5798  -4.5131   3.2667   5.9986   6.4677   6.5106
     7.7865   8.0856   8.1119   8.2265   8.2846   9.1624

          k = 0.2500 0.0000 0.2189 ( 13600 PWs)   bands (ev):

   -49.2531 -24.4016 -24.2523 -24.2107  -8.7637  -8.0225  -7.6692  -4.7012
    -4.6856  -4.6204  -4.5815  -4.5103   2.9206   5.8255   6.4683   6.6722
     7.6041   7.8003   7.8997   8.3679   8.5235   9.4083

          k = 0.2500 0.0000 0.4378 ( 13566 PWs)   bands (ev):

   -49.2529 -24.4096 -24.2520 -24.2104  -8.6802  -8.0121  -7.6491  -4.6943
    -4.6912  -4.6206  -4.5841  -4.5061   2.6260   5.6082   6.4166   6.7271
     7.4079   7.7289   7.8603   8.4180   8.7976   9.5769

          k = 0.2500 0.0000 0.6566 ( 13600 PWs)   bands (ev):

   -49.2531 -24.4016 -24.2523 -24.2107  -8.7637  -8.0225  -7.6692  -4.7012
    -4.6856  -4.6204  -4.5815  -4.5103   2.9206   5.8255   6.4683   6.6722
     7.6041   7.8003   7.8997   8.3679   8.5235   9.4083

          k = 0.2500 0.2500 0.0000 ( 13580 PWs)   bands (ev):

   -49.2522 -24.3915 -24.2511 -24.2510  -8.5878  -8.0035  -7.7039  -4.6818
    -4.6767  -4.6228  -4.5343  -4.4848   2.9493   6.0355   6.1427   6.6660
     7.1085   7.2471   8.1996   8.2394   9.0020   9.4494

          k = 0.2500 0.2500 0.2189 ( 13582 PWs)   bands (ev):

   -49.2521 -24.3995 -24.2508 -24.2507  -8.5182  -8.0041  -7.6720  -4.6842
    -4.6538  -4.6208  -4.5321  -4.4753   2.8469   5.7897   5.8162   6.3393
     7.1580   7.1853   8.2868   8.6400   9.0290   9.2462

          k = 0.2500 0.2500 0.4378 ( 13634 PWs)   bands (ev):

   -49.2520 -24.4075 -24.2505 -24.2504  -8.4508  -8.0047  -7.6352  -4.6855
    -4.6302  -4.6163  -4.5326  -4.4670   2.7194   5.5535   5.6630   6.2283
     6.7503   7.1662   8.6386   8.8820   8.9576   9.0923

          k = 0.2500 0.2500 0.6566 ( 13582 PWs)   bands (ev):

   -49.2521 -24.3995 -24.2508 -24.2507  -8.5182  -8.0041  -7.6720  -4.6842
    -4.6538  -4.6208  -4.5321  -4.4753   2.8469   5.7897   5.8162   6.3393
     7.1580   7.1853   8.2868   8.6400   9.0290   9.2462

          k = 0.2500 0.5000 0.0000 ( 13594 PWs)   bands (ev):

   -49.2513 -24.3892 -24.2911 -24.2495  -8.2926  -7.9801  -7.7429  -4.6643
    -4.6501  -4.5954  -4.4925  -4.4920   2.6560   5.5785   6.2890   6.4528
     7.2241   7.2951   7.4848   8.3058   9.1304   9.4879

          k = 0.2500 0.5000 0.2189 ( 13596 PWs)   bands (ev):

   -49.2512 -24.3971 -24.2907 -24.2492  -8.2605  -7.9766  -7.6876  -4.6578
    -4.6314  -4.5921  -4.4879  -4.4582   2.7404   5.5171   5.6568   5.8910
     6.7265   7.4277   8.1395   8.5892   8.9836   9.1746

          k = 0.2500 0.5000 0.4378 ( 13608 PWs)   bands (ev):

   -49.2511 -24.4049 -24.2904 -24.2490  -8.2381  -7.9732  -7.6192  -4.6559
    -4.6049  -4.5922  -4.4858  -4.4214   2.8173   5.3198   5.3216   5.6397
     6.4248   7.1840   8.0118   8.8770   9.0931   9.2665

          k = 0.2500 0.5000 0.6566 ( 13596 PWs)   bands (ev):

   -49.2512 -24.3971 -24.2907 -24.2492  -8.2605  -7.9766  -7.6876  -4.6578
    -4.6314  -4.5921  -4.4879  -4.4582   2.7404   5.5171   5.6568   5.8910
     6.7265   7.4277   8.1395   8.5892   8.9836   9.1746

          k = 0.2500 0.7500 0.0000 ( 13580 PWs)   bands (ev):

   -49.2522 -24.3915 -24.2511 -24.2510  -8.5878  -8.0035  -7.7039  -4.6818
    -4.6767  -4.6228  -4.5343  -4.4848   2.9493   6.0355   6.1427   6.6660
     7.1085   7.2471   8.1996   8.2394   9.0020   9.4494

          k = 0.2500 0.7500 0.2189 ( 13582 PWs)   bands (ev):

   -49.2521 -24.3995 -24.2508 -24.2507  -8.5182  -8.0041  -7.6720  -4.6842
    -4.6538  -4.6208  -4.5321  -4.4753   2.8469   5.7897   5.8162   6.3393
     7.1580   7.1853   8.2868   8.6400   9.0290   9.2462

          k = 0.2500 0.7500 0.4378 ( 13634 PWs)   bands (ev):

   -49.2520 -24.4075 -24.2505 -24.2504  -8.4508  -8.0047  -7.6352  -4.6855
    -4.6302  -4.6163  -4.5326  -4.4670   2.7194   5.5535   5.6630   6.2283
     6.7503   7.1662   8.6386   8.8820   8.9576   9.0923

          k = 0.2500 0.7500 0.6566 ( 13582 PWs)   bands (ev):

   -49.2521 -24.3995 -24.2508 -24.2507  -8.5182  -8.0041  -7.6720  -4.6842
    -4.6538  -4.6208  -4.5321  -4.4753   2.8469   5.7897   5.8162   6.3393
     7.1580   7.1853   8.2868   8.6400   9.0290   9.2462

          k = 0.5000 0.0000 0.0000 ( 13620 PWs)   bands (ev):

   -49.2522 -24.3912 -24.2928 -24.2096  -8.5558  -8.0106  -7.7010  -4.7120
    -4.6723  -4.6496  -4.5118  -4.5110   2.9127   5.5534   6.7492   7.0590
     7.1305   7.2754   8.0239   8.0874   8.1516  10.3911

          k = 0.5000 0.0000 0.2189 ( 13620 PWs)   bands (ev):

   -49.2521 -24.3991 -24.2924 -24.2093  -8.5183  -7.9901  -7.6555  -4.6952
    -4.6819  -4.6506  -4.5226  -4.4720   2.7294   5.4781   6.5412   6.7796
     7.0866   7.1778   7.8725   8.1757   8.5317   9.9967

          k = 0.5000 0.0000 0.4378 ( 13640 PWs)   bands (ev):

   -49.2520 -24.4070 -24.2920 -24.2091  -8.4868  -7.9694  -7.6008  -4.6914
    -4.6779  -4.6515  -4.5349  -4.4323   2.5625   5.3118   6.1617   6.8354
     6.9429   7.3027   7.5903   8.2826   9.1243   9.4389

          k = 0.5000 0.0000 0.6566 ( 13620 PWs)   bands (ev):

   -49.2521 -24.3991 -24.2924 -24.2093  -8.5183  -7.9901  -7.6555  -4.6952
    -4.6819  -4.6506  -4.5226  -4.4720   2.7294   5.4781   6.5412   6.7796
     7.0866   7.1778   7.8725   8.1757   8.5317   9.9967

          k = 0.5000 0.2500 0.0000 ( 13594 PWs)   bands (ev):

   -49.2513 -24.3892 -24.2911 -24.2495  -8.2925  -7.9801  -7.7429  -4.6643
    -4.6501  -4.5954  -4.4925  -4.4920   2.6560   5.5785   6.2891   6.4528
     7.2241   7.2951   7.4848   8.3058   9.1304   9.4879

          k = 0.5000 0.2500 0.2189 ( 13596 PWs)   bands (ev):

   -49.2512 -24.3971 -24.2907 -24.2492  -8.2605  -7.9766  -7.6876  -4.6578
    -4.6314  -4.5921  -4.4879  -4.4582   2.7404   5.5171   5.6568   5.8910
     6.7265   7.4277   8.1395   8.5892   8.9836   9.1746

          k = 0.5000 0.2500 0.4378 ( 13608 PWs)   bands (ev):

   -49.2511 -24.4049 -24.2904 -24.2490  -8.2381  -7.9732  -7.6192  -4.6559
    -4.6049  -4.5922  -4.4858  -4.4214   2.8173   5.3198   5.3216   5.6397
     6.4248   7.1840   8.0118   8.8770   9.0931   9.2665

          k = 0.5000 0.2500 0.6566 ( 13596 PWs)   bands (ev):

   -49.2512 -24.3971 -24.2907 -24.2492  -8.2605  -7.9766  -7.6876  -4.6578
    -4.6314  -4.5921  -4.4879  -4.4582   2.7404   5.5171   5.6568   5.8910
     6.7265   7.4277   8.1395   8.5892   8.9836   9.1746

          k = 0.5000 0.5000 0.0000 ( 13520 PWs)   bands (ev):

   -49.2504 -24.3868 -24.2894 -24.2894  -7.9512  -7.9512  -7.8520  -4.6306
    -4.5698  -4.5107  -4.5107  -4.5002   2.3513   5.3519   6.0627   6.9008
     6.9008   7.4088   7.4088   7.9845   8.2288   9.8052

          k = 0.5000 0.5000 0.2189 ( 13608 PWs)   bands (ev):

   -49.2503 -24.3947 -24.2891 -24.2891  -7.9650  -7.9650  -7.7465  -4.6079
    -4.5689  -4.5065  -4.4688  -4.4688   2.6103   5.3163   5.8164   5.8164
     6.0657   7.2125   7.2846   8.6632   8.6632   9.7967

          k = 0.5000 0.5000 0.4378 ( 13616 PWs)   bands (ev):

   -49.2502 -24.4025 -24.2888 -24.2888  -7.9786  -7.9786  -7.6374  -4.5852
    -4.5680  -4.5136  -4.4266  -4.4266   2.9535   5.2575   5.3137   5.3137
     6.0686   6.3978   6.6171   9.3279   9.3279   9.7881

          k = 0.5000 0.5000 0.6566 ( 13608 PWs)   bands (ev):

   -49.2503 -24.3947 -24.2891 -24.2891  -7.9650  -7.9650  -7.7465  -4.6079
    -4.5689  -4.5065  -4.4688  -4.4688   2.6103   5.3163   5.8164   5.8164
     6.0657   7.2125   7.2846   8.6632   8.6632   9.7967

          k = 0.5000 0.7500 0.0000 ( 13594 PWs)   bands (ev):

   -49.2513 -24.3892 -24.2911 -24.2495  -8.2925  -7.9801  -7.7429  -4.6643
    -4.6501  -4.5954  -4.4925  -4.4920   2.6560   5.5785   6.2891   6.4528
     7.2241   7.2951   7.4848   8.3058   9.1304   9.4879

          k = 0.5000 0.7500 0.2189 ( 13596 PWs)   bands (ev):

   -49.2512 -24.3971 -24.2907 -24.2492  -8.2605  -7.9766  -7.6876  -4.6578
    -4.6314  -4.5921  -4.4879  -4.4582   2.7404   5.5171   5.6568   5.8910
     6.7265   7.4277   8.1395   8.5892   8.9836   9.1746

          k = 0.5000 0.7500 0.4378 ( 13608 PWs)   bands (ev):

   -49.2511 -24.4049 -24.2904 -24.2490  -8.2381  -7.9732  -7.6192  -4.6559
    -4.6049  -4.5922  -4.4858  -4.4214   2.8173   5.3198   5.3216   5.6397
     6.4248   7.1840   8.0118   8.8770   9.0931   9.2665

          k = 0.5000 0.7500 0.6566 ( 13596 PWs)   bands (ev):

   -49.2512 -24.3971 -24.2907 -24.2492  -8.2605  -7.9766  -7.6876  -4.6578
    -4.6314  -4.5921  -4.4879  -4.4582   2.7404   5.5171   5.6568   5.8910
     6.7265   7.4277   8.1395   8.5892   8.9836   9.1746

          k = 0.7500 0.0000 0.0000 ( 13610 PWs)   bands (ev):

   -49.2532 -24.3935 -24.2526 -24.2109  -8.8461  -8.0319  -7.6892  -4.7116
    -4.6768  -4.6202  -4.5798  -4.5131   3.2667   5.9986   6.4677   6.5106
     7.7865   8.0856   8.1119   8.2265   8.2846   9.1624

          k = 0.7500 0.0000 0.2189 ( 13600 PWs)   bands (ev):

   -49.2531 -24.4016 -24.2523 -24.2107  -8.7637  -8.0225  -7.6692  -4.7012
    -4.6856  -4.6204  -4.5815  -4.5103   2.9206   5.8255   6.4683   6.6722
     7.6041   7.8003   7.8997   8.3679   8.5235   9.4083

          k = 0.7500 0.0000 0.4378 ( 13566 PWs)   bands (ev):

   -49.2529 -24.4096 -24.2520 -24.2104  -8.6802  -8.0121  -7.6491  -4.6943
    -4.6912  -4.6206  -4.5841  -4.5061   2.6260   5.6082   6.4166   6.7271
     7.4079   7.7289   7.8603   8.4180   8.7976   9.5769

          k = 0.7500 0.0000 0.6566 ( 13600 PWs)   bands (ev):

   -49.2531 -24.4016 -24.2523 -24.2107  -8.7637  -8.0225  -7.6692  -4.7012
    -4.6856  -4.6204  -4.5815  -4.5103   2.9206   5.8255   6.4683   6.6722
     7.6041   7.8003   7.8997   8.3679   8.5235   9.4083

          k = 0.7500 0.2500 0.0000 ( 13580 PWs)   bands (ev):

   -49.2522 -24.3915 -24.2511 -24.2510  -8.5878  -8.0035  -7.7039  -4.6818
    -4.6767  -4.6228  -4.5343  -4.4848   2.9493   6.0355   6.1427   6.6660
     7.1085   7.2471   8.1996   8.2394   9.0020   9.4494

          k = 0.7500 0.2500 0.2189 ( 13582 PWs)   bands (ev):

   -49.2521 -24.3995 -24.2508 -24.2507  -8.5182  -8.0041  -7.6720  -4.6842
    -4.6538  -4.6208  -4.5321  -4.4753   2.8469   5.7897   5.8162   6.3393
     7.1580   7.1853   8.2868   8.6400   9.0290   9.2462

          k = 0.7500 0.2500 0.4378 ( 13634 PWs)   bands (ev):

   -49.2520 -24.4075 -24.2505 -24.2504  -8.4508  -8.0047  -7.6352  -4.6855
    -4.6302  -4.6163  -4.5326  -4.4670   2.7194   5.5535   5.6630   6.2283
     6.7503   7.1662   8.6386   8.8820   8.9576   9.0923

          k = 0.7500 0.2500 0.6566 ( 13582 PWs)   bands (ev):

   -49.2521 -24.3995 -24.2508 -24.2507  -8.5182  -8.0041  -7.6720  -4.6842
    -4.6538  -4.6208  -4.5321  -4.4753   2.8469   5.7897   5.8162   6.3393
     7.1580   7.1853   8.2868   8.6400   9.0290   9.2462

          k = 0.7500 0.5000 0.0000 ( 13594 PWs)   bands (ev):

   -49.2513 -24.3892 -24.2911 -24.2495  -8.2926  -7.9801  -7.7429  -4.6643
    -4.6501  -4.5954  -4.4925  -4.4920   2.6560   5.5785   6.2890   6.4528
     7.2241   7.2951   7.4848   8.3058   9.1304   9.4879

          k = 0.7500 0.5000 0.2189 ( 13596 PWs)   bands (ev):

   -49.2512 -24.3971 -24.2907 -24.2492  -8.2605  -7.9766  -7.6876  -4.6578
    -4.6314  -4.5921  -4.4879  -4.4582   2.7404   5.5171   5.6568   5.8910
     6.7265   7.4277   8.1395   8.5892   8.9836   9.1746

          k = 0.7500 0.5000 0.4378 ( 13608 PWs)   bands (ev):

   -49.2511 -24.4049 -24.2904 -24.2490  -8.2381  -7.9732  -7.6192  -4.6559
    -4.6049  -4.5922  -4.4858  -4.4214   2.8173   5.3198   5.3216   5.6397
     6.4248   7.1840   8.0118   8.8770   9.0931   9.2665

          k = 0.7500 0.5000 0.6566 ( 13596 PWs)   bands (ev):

   -49.2512 -24.3971 -24.2907 -24.2492  -8.2605  -7.9766  -7.6876  -4.6578
    -4.6314  -4.5921  -4.4879  -4.4582   2.7404   5.5171   5.6568   5.8910
     6.7265   7.4277   8.1395   8.5892   8.9836   9.1746

          k = 0.7500 0.7500 0.0000 ( 13580 PWs)   bands (ev):

   -49.2522 -24.3915 -24.2511 -24.2510  -8.5878  -8.0035  -7.7039  -4.6818
    -4.6767  -4.6228  -4.5343  -4.4848   2.9493   6.0355   6.1427   6.6660
     7.1085   7.2471   8.1996   8.2394   9.0020   9.4494

          k = 0.7500 0.7500 0.2189 ( 13582 PWs)   bands (ev):

   -49.2521 -24.3995 -24.2508 -24.2507  -8.5182  -8.0041  -7.6720  -4.6842
    -4.6538  -4.6208  -4.5321  -4.4753   2.8469   5.7897   5.8162   6.3393
     7.1580   7.1853   8.2868   8.6400   9.0290   9.2462

          k = 0.7500 0.7500 0.4378 ( 13634 PWs)   bands (ev):

   -49.2520 -24.4075 -24.2505 -24.2504  -8.4508  -8.0047  -7.6352  -4.6855
    -4.6302  -4.6163  -4.5326  -4.4670   2.7194   5.5535   5.6630   6.2283
     6.7503   7.1662   8.6386   8.8820   8.9576   9.0923

          k = 0.7500 0.7500 0.6566 ( 13582 PWs)   bands (ev):

   -49.2521 -24.3995 -24.2508 -24.2507  -8.5182  -8.0041  -7.6720  -4.6842
    -4.6538  -4.6208  -4.5321  -4.4753   2.8469   5.7897   5.8162   6.3393
     7.1580   7.1853   8.2868   8.6400   9.0290   9.2462

     highest occupied level (ev):    10.3911

     Writing output data file pwscf/pbtio3.save/
 
     init_run     :      0.04s CPU      0.18s WALL (       1 calls)
     electrons    :     53.70s CPU     56.69s WALL (       1 calls)

     Called by init_run:
     wfcinit      :      0.00s CPU      0.01s WALL (       1 calls)
     potinit      :      0.01s CPU      0.01s WALL (       1 calls)
     hinit0       :      0.02s CPU      0.15s WALL (       1 calls)

     Called by electrons:
     c_bands      :     53.70s CPU     56.69s WALL (       1 calls)
     v_of_rho     :      0.00s CPU      0.00s WALL (       1 calls)

     Called by c_bands:
     init_us_2    :      0.01s CPU      0.01s WALL (      64 calls)
     cegterg      :     52.46s CPU     55.32s WALL (     202 calls)

     Called by *egterg:
     cdiaghg      :      2.51s CPU      2.66s WALL (    3793 calls)
     h_psi        :     49.63s CPU     52.40s WALL (    3995 calls)
     g_psi        :      0.04s CPU      0.04s WALL (    3729 calls)

     Called by h_psi:
     h_psi:calbec :      0.57s CPU      0.60s WALL (    3995 calls)
     vloc_psi     :     12.27s CPU     12.91s WALL (    3995 calls)
     add_vuspsi   :      0.22s CPU      0.23s WALL (    3995 calls)
     h_psi_meta   :     36.51s CPU     38.59s WALL (    3995 calls)

     General routines
     calbec       :      0.55s CPU      0.59s WALL (    3995 calls)
     fft          :      0.01s CPU      0.13s WALL (      11 calls)
     fftw         :     46.56s CPU     49.16s WALL (  517840 calls)
     interpolate  :      0.00s CPU      0.00s WALL (       1 calls)
     davcio       :      0.01s CPU      0.01s WALL (     128 calls)
 
     Parallel routines
     fft_scatt_xy :      2.21s CPU      2.34s WALL (  517851 calls)
     fft_scatt_yz :     34.46s CPU     36.37s WALL (  517851 calls)
 
     PWSCF        :     54.62s CPU     59.18s WALL

 
   This run was terminated on:   3:27:35   8Sep2021            

=------------------------------------------------------------------------------=
   JOB DONE.
=------------------------------------------------------------------------------=
