 
             +---------------------------------------------------+
             |                                                   |
             |                   WANNIER90                       |
             |                                                   |
             +---------------------------------------------------+
             |                                                   |
             |        Welcome to the Maximally-Localized         |
             |        Generalized Wannier Functions code         |
             |            http://www.wannier.org                 |
             |                                                   |
             |                                                   |
             |  Wannier90 Developer Group:                       |
             |    Giovanni Pizzi    (EPFL)                       |
             |    Valerio Vitale    (Cambridge)                  |
             |    David Vanderbilt  (Rutgers University)         |
             |    Nicola Marzari    (EPFL)                       |
             |    Ivo Souza         (Universidad del Pais Vasco) |
             |    Arash A. Mostofi  (Imperial College London)    |
             |    Jonathan R. Yates (University of Oxford)       |
             |                                                   |
             |  For the full list of Wannier90 3.x authors,      |
             |  please check the code documentation and the      |
             |  README on the GitHub page of the code            |
             |                                                   |
             |                                                   |
             |  Please cite                                      |
             |                                                   |
             |  [ref] "Wannier90 as a community code:            |
             |        new features and applications",            |
             |        G. Pizzi et al., J. Phys. Cond. Matt. 32,  |
             |        165902 (2020).                             |
             |        http://doi.org/10.1088/1361-648X/ab51ff    |
             |                                                   |
             |  in any publications arising from the use of      |
             |  this code. For the method please cite            |
             |                                                   |
             |  [ref] "Maximally Localized Generalised Wannier   |
             |         Functions for Composite Energy Bands"     |
             |         N. Marzari and D. Vanderbilt              |
             |         Phys. Rev. B 56 12847 (1997)              |
             |                                                   |
             |  [ref] "Maximally Localized Wannier Functions     |
             |         for Entangled Energy Bands"               |
             |         I. Souza, N. Marzari and D. Vanderbilt    |
             |         Phys. Rev. B 65 035109 (2001)             |
             |                                                   |
             |                                                   |
             | Copyright (c) 1996-2020                           |
             |        The Wannier90 Developer Group and          |
             |        individual contributors                    |
             |                                                   |
             |      Release: 3.1.0        5th March    2020      |
             |                                                   |
             | This program is free software; you can            |
             | redistribute it and/or modify it under the terms  |
             | of the GNU General Public License as published by |
             | the Free Software Foundation; either version 2 of |
             | the License, or (at your option) any later version|
             |                                                   |
             | This program is distributed in the hope that it   |
             | will be useful, but WITHOUT ANY WARRANTY; without |
             | even the implied warranty of MERCHANTABILITY or   |
             | FITNESS FOR A PARTICULAR PURPOSE. See the GNU     |
             | General Public License for more details.          |
             |                                                   |
             | You should have received a copy of the GNU General|
             | Public License along with this program; if not,   |
             | write to the Free Software Foundation, Inc.,      |
             | 675 Mass Ave, Cambridge, MA 02139, USA.           |
             |                                                   |
             +---------------------------------------------------+
             |    Execution started on  8Sep2021 at 03:27:48     |
             +---------------------------------------------------+
 
 ******************************************************************************
 * -> Using CODATA 2006 constant values                                       *
 *    (http://physics.nist.gov/cuu/Constants/index.html)                      *
 * -> Using Bohr value from CODATA                                            *
 ******************************************************************************
 

 Running in parallel on  80 CPUs

 
                                    ------
                                    SYSTEM
                                    ------
 
                              Lattice Vectors (Ang)
                    a_1     3.845786   0.000000   0.000000
                    a_2     0.000000   3.845786   0.000000
                    a_3     0.000000   0.000000   4.392579
 
                   Unit Cell Volume:      64.96657  (Ang^3)
 
                        Reciprocal-Space Vectors (Ang^-1)
                    b_1     1.633784   0.000000   0.000000
                    b_2     0.000000   1.633784   0.000000
                    b_3     0.000000   0.000000   1.430409
  
 *----------------------------------------------------------------------------*
 |   Site       Fractional Coordinate          Cartesian Coordinate (Ang)     |
 +----------------------------------------------------------------------------+
 | Pb   1   0.00000   0.00000  -0.00550   |    0.00000   0.00000  -0.02416    |
 | Ti   1   0.50000   0.50000   0.54329   |    1.92289   1.92289   2.38645    |
 | O    1   0.50000   0.50000   0.14513   |    1.92289   1.92289   0.63751    |
 | O    2   0.00000   0.50000   0.64110   |    0.00000   1.92289   2.81607    |
 | O    3   0.50000   0.00000   0.64110   |    1.92289   0.00000   2.81607    |
 *----------------------------------------------------------------------------*
                                ------------
                                K-POINT GRID
                                ------------
  
             Grid size =  4 x  4 x  4      Total points =   64
  
  
 *---------------------------------- MAIN ------------------------------------*
 |  Number of Wannier Functions               :                22             |
 |  Number of Objective Wannier Functions     :                22             |
 |  Number of input Bloch states              :                22             |
 |  Output verbosity (1=low, 5=high)          :                 1             |
 |  Timing Level (1=low, 5=high)              :                 1             |
 |  Optimisation (0=memory, 3=speed)          :                 3             |
 |  Length Unit                               :               Ang             |
 |  Post-processing setup (write *.nnkp)      :                 F             |
 |  Using Gamma-only branch of algorithms     :                 F             |
 *----------------------------------------------------------------------------*
 *------------------------------- WANNIERISE ---------------------------------*
 |  Total number of iterations                :               100             |
 |  Number of CG steps before reset           :                 5             |
 |  Trial step length for line search         :             2.000             |
 |  Convergence tolerence                     :         0.100E-09             |
 |  Convergence window                        :                -1             |
 |  Iterations between writing output         :                 1             |
 |  Iterations between backing up to disk     :               100             |
 |  Write r^2_nm to file                      :                 F             |
 |  Write xyz WF centres to file              :                 T             |
 |  Write on-site energies <0n|H|0n> to file  :                 F             |
 |  Use guiding centre to control phases      :                 T             |
 |  Use phases for initial projections        :                 F             |
 |  Iterations before starting guiding centres:                 0             |
 |  Iterations between using guiding centres  :                 1             |
 *----------------------------------------------------------------------------*
 Time to read parameters        0.008 (sec)

 *---------------------------------- K-MESH ----------------------------------*
 +----------------------------------------------------------------------------+
 |                    Distance to Nearest-Neighbour Shells                    |
 |                    ------------------------------------                    |
 |          Shell             Distance (Ang^-1)          Multiplicity         |
 |          -----             -----------------          ------------         |
 |             1                   0.357602                      2            |
 |             2                   0.408446                      4            |
 |             3                   0.542870                      8            |
 |             4                   0.577630                      4            |
 |             5                   0.679364                      8            |
 |             6                   0.715205                      2            |
 |             7                   0.816892                      4            |
 |             8                   0.823617                      8            |
 |             9                   0.891735                      8            |
 |            10                   0.913313                      8            |
 |            11                   0.919333                      8            |
 |            12                   0.980826                     16            |
 |            13                   1.072807                      2            |
 |            14                   1.085739                      8            |
 |            15                   1.147930                      8            |
 |            16                   1.155260                      4            |
 |            17                   1.160025                     16            |
 |            18                   1.209341                      8            |
 |            19                   1.218430                      8            |
 |            20                   1.225338                      4            |
 |            21                   1.276453                      8            |
 |            22                   1.291620                      8            |
 |            23                   1.340209                     16            |
 |            24                   1.348417                      8            |
 |            25                   1.358728                      8            |
 |            26                   1.408920                     16            |
 |            27                   1.418792                      8            |
 |            28                   1.430409                      2            |
 |            29                   1.472673                      8            |
 |            30                   1.476414                     16            |
 |            31                   1.487581                      8            |
 |            32                   1.515469                     16            |
 |            33                   1.542636                      8            |
 |            34                   1.576560                      8            |
 |            35                   1.628609                      8            |
 |            36                   1.633784                      4            |
 +----------------------------------------------------------------------------+
 | The b-vectors are chosen automatically                                     |
 | The following shells are used:   1,  2                                     |
 +----------------------------------------------------------------------------+
 |                        Shell   # Nearest-Neighbours                        |
 |                        -----   --------------------                        |
 |                          1               2                                 |
 |                          2               4                                 |
 +----------------------------------------------------------------------------+
 | Completeness relation is fully satisfied [Eq. (B1), PRB 56, 12847 (1997)]  |
 +----------------------------------------------------------------------------+
 |                  b_k Vectors (Ang^-1) and Weights (Ang^2)                  |
 |                  ----------------------------------------                  |
 |            No.         b_k(x)      b_k(y)      b_k(z)        w_b           |
 |            ---        --------------------------------     --------        |
 |             1         0.000000    0.000000    0.357602     3.909934        |
 |             2         0.000000    0.000000   -0.357602     3.909934        |
 |             3         0.000000    0.408446    0.000000     2.997096        |
 |             4         0.408446    0.000000    0.000000     2.997096        |
 |             5         0.000000   -0.408446    0.000000     2.997096        |
 |             6        -0.408446    0.000000    0.000000     2.997096        |
 +----------------------------------------------------------------------------+
 |                           b_k Directions (Ang^-1)                          |
 |                           -----------------------                          |
 |            No.           x           y           z                         |
 |            ---        --------------------------------                     |
 |             1         0.000000    0.000000    0.357602                     |
 |             2         0.000000    0.408446    0.000000                     |
 |             3         0.408446    0.000000    0.000000                     |
 +----------------------------------------------------------------------------+
  
 Time to get kmesh              0.042 (sec)
 *============================================================================*
 |                              MEMORY ESTIMATE                               |
 |         Maximum RAM allocated during each phase of the calculation         |
 *============================================================================*
 |                            Wannierise:            7.96 Mb                  |
 |                          plot_wannier:            7.96 Mb                  |
 *----------------------------------------------------------------------------*
  
 Starting a new Wannier90 calculation ...


 Reading overlaps from PbTiO3.mmn    :  Created on  8Sep2021 at  3:27:45

 Reading projections from PbTiO3.amn :  Created on  8Sep2021 at  3:27:42

 Time to read overlaps          0.657 (sec)

 Writing checkpoint file PbTiO3.chk... done

 
 *------------------------------- WANNIERISE ---------------------------------*
 +--------------------------------------------------------------------+<-- CONV
 | Iter  Delta Spread     RMS Gradient      Spread (Ang^2)      Time  |<-- CONV
 +--------------------------------------------------------------------+<-- CONV
 
 ------------------------------------------------------------------------------
 Initial State
  WF centre and spread    1  ( -0.000000,  0.000000,  0.177696 )     1.75891328
  WF centre and spread    2  (  0.000000, -0.000000, -0.027455 )     0.67306303
  WF centre and spread    3  (  0.000000, -0.000000, -0.020973 )     0.67211926
  WF centre and spread    4  (  0.000000, -0.000000, -0.020973 )     0.67211926
  WF centre and spread    5  (  0.000000, -0.000000, -0.024400 )     0.66942397
  WF centre and spread    6  (  0.000000, -0.000000, -0.026693 )     0.67029323
  WF centre and spread    7  (  1.922893,  1.922893,  2.385622 )     0.31971948
  WF centre and spread    8  (  1.922893,  1.922893,  2.414166 )     0.41380347
  WF centre and spread    9  (  1.922893,  1.922893,  2.382974 )     0.40501593
  WF centre and spread   10  (  1.922893,  1.922893,  2.382974 )     0.40501593
  WF centre and spread   11  (  2.102366,  2.102366,  0.950456 )     0.88067410
  WF centre and spread   12  (  2.112298,  1.733489,  0.539972 )     0.92378108
  WF centre and spread   13  (  1.733489,  2.112298,  0.539971 )     0.92378099
  WF centre and spread   14  (  1.743420,  1.743420,  0.950456 )     0.88067431
  WF centre and spread   15  (  0.202163,  2.139074,  3.013495 )     0.91643626
  WF centre and spread   16  (  0.217278,  1.759575,  2.634142 )     0.89978551
  WF centre and spread   17  ( -0.217278,  2.086211,  2.634142 )     0.89978557
  WF centre and spread   18  ( -0.202163,  1.706713,  3.013495 )     0.91643641
  WF centre and spread   19  (  2.139074,  0.202163,  3.013495 )     0.91643838
  WF centre and spread   20  (  2.086211, -0.217278,  2.634142 )     0.89978788
  WF centre and spread   21  (  1.759575,  0.217278,  2.634142 )     0.89978776
  WF centre and spread   22  (  1.706712, -0.202163,  3.013495 )     0.91643847
  Sum of centres and spreads ( 23.074719, 23.074719, 35.194341 )    17.53329355
 
      0     0.175E+02     0.0000000000       17.5332935489       0.00  <-- CONV
        O_D=      0.0103689 O_OD=      3.3038115 O_TOT=     17.5332935 <-- SPRD
 ------------------------------------------------------------------------------
 Cycle:      1
  WF centre and spread    1  ( -0.000000,  0.000000,  0.179684 )     1.73493528
  WF centre and spread    2  (  0.000000,  0.000000, -0.025878 )     0.67083952
  WF centre and spread    3  (  0.000000, -0.000000, -0.017197 )     0.67108592
  WF centre and spread    4  (  0.000000, -0.000000, -0.017197 )     0.67108589
  WF centre and spread    5  (  0.000000, -0.000000, -0.023373 )     0.66444958
  WF centre and spread    6  (  0.000000, -0.000000, -0.026545 )     0.66788950
  WF centre and spread    7  (  1.922893,  1.922893,  2.385629 )     0.30868483
  WF centre and spread    8  (  1.922893,  1.922893,  2.419458 )     0.39584284
  WF centre and spread    9  (  1.922893,  1.922893,  2.382794 )     0.38950986
  WF centre and spread   10  (  1.922893,  1.922893,  2.382794 )     0.38950987
  WF centre and spread   11  (  2.101869,  2.101869,  0.947542 )     0.85331483
  WF centre and spread   12  (  2.111332,  1.734454,  0.540935 )     0.89973732
  WF centre and spread   13  (  1.734454,  2.111333,  0.540935 )     0.89973721
  WF centre and spread   14  (  1.743917,  1.743917,  0.947542 )     0.85331495
  WF centre and spread   15  (  0.200037,  2.139286,  3.013101 )     0.87690670
  WF centre and spread   16  (  0.215358,  1.760568,  2.634075 )     0.86815771
  WF centre and spread   17  ( -0.215358,  2.085218,  2.634075 )     0.86815781
  WF centre and spread   18  ( -0.200037,  1.706500,  3.013101 )     0.87690683
  WF centre and spread   19  (  2.139286,  0.200037,  3.013101 )     0.87690863
  WF centre and spread   20  (  2.085218, -0.215358,  2.634075 )     0.86815995
  WF centre and spread   21  (  1.760568,  0.215358,  2.634075 )     0.86815983
  WF centre and spread   22  (  1.706500, -0.200037,  3.013101 )     0.87690868
  Sum of centres and spreads ( 23.074719, 23.074719, 35.205828 )    17.05020354
 
      1    -0.483E+00     0.5433991507       17.0502035408       0.03  <-- CONV
        O_D=      0.0152918 O_OD=      2.8157986 O_TOT=     17.0502035 <-- SPRD
 Delta: O_D=  0.4922878E-02 O_OD= -0.4880129E+00 O_TOT= -0.4830900E+00 <-- DLTA
 ------------------------------------------------------------------------------
 Cycle:      2
  WF centre and spread    1  ( -0.000000,  0.000000,  0.181436 )     1.72261461
  WF centre and spread    2  (  0.000000,  0.000000, -0.024400 )     0.67449601
  WF centre and spread    3  (  0.000000, -0.000000, -0.015033 )     0.67866384
  WF centre and spread    4  (  0.000000, -0.000000, -0.015033 )     0.67866378
  WF centre and spread    5  (  0.000000, -0.000000, -0.023805 )     0.66929718
  WF centre and spread    6  (  0.000000, -0.000000, -0.025773 )     0.67487194
  WF centre and spread    7  (  1.922893,  1.922893,  2.385391 )     0.30163855
  WF centre and spread    8  (  1.922893,  1.922893,  2.424480 )     0.39155791
  WF centre and spread    9  (  1.922893,  1.922893,  2.382881 )     0.38658856
  WF centre and spread   10  (  1.922893,  1.922893,  2.382881 )     0.38658857
  WF centre and spread   11  (  2.102528,  2.102528,  0.944533 )     0.83701604
  WF centre and spread   12  (  2.112045,  1.733742,  0.540157 )     0.88808545
  WF centre and spread   13  (  1.733742,  2.112045,  0.540157 )     0.88808534
  WF centre and spread   14  (  1.743259,  1.743259,  0.944533 )     0.83701611
  WF centre and spread   15  (  0.198442,  2.140084,  3.013647 )     0.85480153
  WF centre and spread   16  (  0.214332,  1.759995,  2.633120 )     0.84910482
  WF centre and spread   17  ( -0.214332,  2.085791,  2.633121 )     0.84910491
  WF centre and spread   18  ( -0.198442,  1.705702,  3.013647 )     0.85480164
  WF centre and spread   19  (  2.140085,  0.198442,  3.013647 )     0.85480339
  WF centre and spread   20  (  2.085791, -0.214332,  2.633121 )     0.84910701
  WF centre and spread   21  (  1.759995,  0.214332,  2.633121 )     0.84910683
  WF centre and spread   22  (  1.705702, -0.198442,  3.013647 )     0.85480338
  Sum of centres and spreads ( 23.074719, 23.074719, 35.209475 )    16.83081740
 
      2    -0.219E+00     0.4919718079       16.8308173955       0.03  <-- CONV
        O_D=      0.0083844 O_OD=      2.6033199 O_TOT=     16.8308174 <-- SPRD
 Delta: O_D= -0.6907403E-02 O_OD= -0.2124787E+00 O_TOT= -0.2193861E+00 <-- DLTA
 ------------------------------------------------------------------------------
 Cycle:      3
  WF centre and spread    1  ( -0.000000,  0.000000,  0.181773 )     1.71740870
  WF centre and spread    2  (  0.000000,  0.000000, -0.023918 )     0.67538461
  WF centre and spread    3  (  0.000000,  0.000000, -0.014458 )     0.68329455
  WF centre and spread    4  ( -0.000000, -0.000000, -0.014458 )     0.68329448
  WF centre and spread    5  (  0.000000, -0.000000, -0.024527 )     0.67242700
  WF centre and spread    6  (  0.000000, -0.000000, -0.025409 )     0.67879100
  WF centre and spread    7  (  1.922893,  1.922893,  2.384987 )     0.29888701
  WF centre and spread    8  (  1.922893,  1.922893,  2.427684 )     0.39274789
  WF centre and spread    9  (  1.922893,  1.922893,  2.383045 )     0.38831963
  WF centre and spread   10  (  1.922893,  1.922893,  2.383045 )     0.38831963
  WF centre and spread   11  (  2.103086,  2.103086,  0.942798 )     0.82824697
  WF centre and spread   12  (  2.112864,  1.732923,  0.539514 )     0.88243520
  WF centre and spread   13  (  1.732922,  2.112864,  0.539514 )     0.88243508
  WF centre and spread   14  (  1.742700,  1.742700,  0.942798 )     0.82824704
  WF centre and spread   15  (  0.197526,  2.140935,  3.014344 )     0.84564992
  WF centre and spread   16  (  0.214135,  1.759722,  2.632729 )     0.84105391
  WF centre and spread   17  ( -0.214135,  2.086064,  2.632729 )     0.84105400
  WF centre and spread   18  ( -0.197526,  1.704851,  3.014344 )     0.84565003
  WF centre and spread   19  (  2.140935,  0.197526,  3.014344 )     0.84565174
  WF centre and spread   20  (  2.086064, -0.214135,  2.632729 )     0.84105605
  WF centre and spread   21  (  1.759722,  0.214135,  2.632729 )     0.84105587
  WF centre and spread   22  (  1.704851, -0.197526,  3.014344 )     0.84565173
  Sum of centres and spreads ( 23.074719, 23.074719, 35.210677 )    16.74706203
 
      3    -0.838E-01     0.3583508720       16.7470620334       0.04  <-- CONV
        O_D=      0.0065651 O_OD=      2.5213837 O_TOT=     16.7470620 <-- SPRD
 Delta: O_D= -0.1819208E-02 O_OD= -0.8193615E-01 O_TOT= -0.8375536E-01 <-- DLTA
 ------------------------------------------------------------------------------
 Cycle:      4
  WF centre and spread    1  ( -0.000000,  0.000000,  0.181258 )     1.71497774
  WF centre and spread    2  (  0.000000,  0.000000, -0.023839 )     0.67445064
  WF centre and spread    3  (  0.000000,  0.000000, -0.014287 )     0.68480234
  WF centre and spread    4  ( -0.000000, -0.000000, -0.014287 )     0.68480226
  WF centre and spread    5  (  0.000000, -0.000000, -0.025057 )     0.67370931
  WF centre and spread    6  (  0.000000, -0.000000, -0.025413 )     0.67914288
  WF centre and spread    7  (  1.922893,  1.922893,  2.384484 )     0.29727872
  WF centre and spread    8  (  1.922893,  1.922893,  2.430156 )     0.39516942
  WF centre and spread    9  (  1.922893,  1.922893,  2.383161 )     0.39167402
  WF centre and spread   10  (  1.922893,  1.922893,  2.383161 )     0.39167403
  WF centre and spread   11  (  2.103426,  2.103426,  0.941659 )     0.82342663
  WF centre and spread   12  (  2.113522,  1.732264,  0.539079 )     0.88000905
  WF centre and spread   13  (  1.732264,  2.113522,  0.539079 )     0.88000893
  WF centre and spread   14  (  1.742361,  1.742361,  0.941659 )     0.82342673
  WF centre and spread   15  (  0.196805,  2.141751,  3.014915 )     0.84166319
  WF centre and spread   16  (  0.214372,  1.759731,  2.632600 )     0.83707438
  WF centre and spread   17  ( -0.214372,  2.086056,  2.632600 )     0.83707444
  WF centre and spread   18  ( -0.196805,  1.704035,  3.014915 )     0.84166330
  WF centre and spread   19  (  2.141751,  0.196805,  3.014915 )     0.84166498
  WF centre and spread   20  (  2.086056, -0.214373,  2.632600 )     0.83707647
  WF centre and spread   21  (  1.759731,  0.214373,  2.632600 )     0.83707630
  WF centre and spread   22  (  1.704035, -0.196805,  3.014915 )     0.84166499
  Sum of centres and spreads ( 23.074719, 23.074719, 35.210875 )    16.70951078
 
      4    -0.376E-01     0.2378206257       16.7095107825       0.04  <-- CONV
        O_D=      0.0058106 O_OD=      2.4845870 O_TOT=     16.7095108 <-- SPRD
 Delta: O_D= -0.7545067E-03 O_OD= -0.3679674E-01 O_TOT= -0.3755125E-01 <-- DLTA
 ------------------------------------------------------------------------------
 Cycle:      5
  WF centre and spread    1  ( -0.000000,  0.000000,  0.180617 )     1.71375523
  WF centre and spread    2  (  0.000000,  0.000000, -0.023841 )     0.67285113
  WF centre and spread    3  (  0.000000,  0.000000, -0.014070 )     0.68501819
  WF centre and spread    4  ( -0.000000, -0.000000, -0.014070 )     0.68501811
  WF centre and spread    5  (  0.000000, -0.000000, -0.025424 )     0.67415970
  WF centre and spread    6  (  0.000000, -0.000000, -0.025604 )     0.67743028
  WF centre and spread    7  (  1.922893,  1.922893,  2.383710 )     0.29641950
  WF centre and spread    8  (  1.922893,  1.922893,  2.432770 )     0.39906535
  WF centre and spread    9  (  1.922893,  1.922893,  2.383220 )     0.39726764
  WF centre and spread   10  (  1.922893,  1.922893,  2.383220 )     0.39726765
  WF centre and spread   11  (  2.103617,  2.103617,  0.940757 )     0.81881409
  WF centre and spread   12  (  2.114181,  1.731606,  0.538721 )     0.87809072
  WF centre and spread   13  (  1.731606,  2.114181,  0.538720 )     0.87809059
  WF centre and spread   14  (  1.742170,  1.742170,  0.940757 )     0.81881425
  WF centre and spread   15  (  0.195949,  2.142708,  3.015417 )     0.83895201
  WF centre and spread   16  (  0.215037,  1.759900,  2.632434 )     0.83343271
  WF centre and spread   17  ( -0.215037,  2.085886,  2.632434 )     0.83343274
  WF centre and spread   18  ( -0.195949,  1.703079,  3.015417 )     0.83895212
  WF centre and spread   19  (  2.142708,  0.195949,  3.015417 )     0.83895377
  WF centre and spread   20  (  2.085886, -0.215037,  2.632434 )     0.83343475
  WF centre and spread   21  (  1.759900,  0.215037,  2.632434 )     0.83343460
  WF centre and spread   22  (  1.703078, -0.195949,  3.015417 )     0.83895382
  Sum of centres and spreads ( 23.074719, 23.074719, 35.210889 )    16.68160895
 
      5    -0.279E-01     0.1927944277       16.6816089469       0.04  <-- CONV
        O_D=      0.0056407 O_OD=      2.4568551 O_TOT=     16.6816089 <-- SPRD
 Delta: O_D= -0.1699425E-03 O_OD= -0.2773189E-01 O_TOT= -0.2790184E-01 <-- DLTA
 ------------------------------------------------------------------------------
 Cycle:      6
  WF centre and spread    1  ( -0.000000,  0.000000,  0.180478 )     1.71467948
  WF centre and spread    2  (  0.000000,  0.000000, -0.023919 )     0.67166032
  WF centre and spread    3  (  0.000000,  0.000000, -0.013848 )     0.68449884
  WF centre and spread    4  ( -0.000000, -0.000000, -0.013848 )     0.68449876
  WF centre and spread    5  (  0.000000, -0.000000, -0.025476 )     0.67390544
  WF centre and spread    6  (  0.000000, -0.000000, -0.025772 )     0.67531954
  WF centre and spread    7  (  1.922893,  1.922893,  2.382918 )     0.29620025
  WF centre and spread    8  (  1.922893,  1.922893,  2.434614 )     0.40249460
  WF centre and spread    9  (  1.922893,  1.922893,  2.383209 )     0.40200696
  WF centre and spread   10  (  1.922893,  1.922893,  2.383209 )     0.40200698
  WF centre and spread   11  (  2.103596,  2.103596,  0.940369 )     0.81583144
  WF centre and spread   12  (  2.114609,  1.731177,  0.538537 )     0.87674785
  WF centre and spread   13  (  1.731177,  2.114609,  0.538537 )     0.87674772
  WF centre and spread   14  (  1.742191,  1.742191,  0.940369 )     0.81583164
  WF centre and spread   15  (  0.195212,  2.143474,  3.015700 )     0.83761795
  WF centre and spread   16  (  0.215811,  1.760184,  2.632272 )     0.83095982
  WF centre and spread   17  ( -0.215811,  2.085603,  2.632272 )     0.83095983
  WF centre and spread   18  ( -0.195212,  1.702312,  3.015700 )     0.83761806
  WF centre and spread   19  (  2.143474,  0.195212,  3.015700 )     0.83761969
  WF centre and spread   20  (  2.085603, -0.215811,  2.632272 )     0.83096183
  WF centre and spread   21  (  1.760184,  0.215811,  2.632272 )     0.83096169
  WF centre and spread   22  (  1.702312, -0.195212,  3.015700 )     0.83761977
  Sum of centres and spreads ( 23.074719, 23.074719, 35.211265 )    16.66674846
 
      6    -0.149E-01     0.1543232502       16.6667484623       0.04  <-- CONV
        O_D=      0.0055384 O_OD=      2.4420969 O_TOT=     16.6667485 <-- SPRD
 Delta: O_D= -0.1022987E-03 O_OD= -0.1475819E-01 O_TOT= -0.1486048E-01 <-- DLTA
 ------------------------------------------------------------------------------
 Cycle:      7
  WF centre and spread    1  ( -0.000000,  0.000000,  0.180565 )     1.71481302
  WF centre and spread    2  (  0.000000,  0.000000, -0.024024 )     0.67139647
  WF centre and spread    3  (  0.000000,  0.000000, -0.013839 )     0.68392978
  WF centre and spread    4  ( -0.000000, -0.000000, -0.013839 )     0.68392970
  WF centre and spread    5  (  0.000000, -0.000000, -0.025374 )     0.67342813
  WF centre and spread    6  (  0.000000, -0.000000, -0.025800 )     0.67479600
  WF centre and spread    7  (  1.922893,  1.922893,  2.382666 )     0.29598952
  WF centre and spread    8  (  1.922893,  1.922893,  2.435064 )     0.40266387
  WF centre and spread    9  (  1.922893,  1.922893,  2.383189 )     0.40228795
  WF centre and spread   10  (  1.922893,  1.922893,  2.383188 )     0.40228797
  WF centre and spread   11  (  2.103549,  2.103549,  0.940376 )     0.81522789
  WF centre and spread   12  (  2.114680,  1.731106,  0.538536 )     0.87630645
  WF centre and spread   13  (  1.731106,  2.114680,  0.538536 )     0.87630632
  WF centre and spread   14  (  1.742237,  1.742237,  0.940376 )     0.81522810
  WF centre and spread   15  (  0.194979,  2.143660,  3.015726 )     0.83765955
  WF centre and spread   16  (  0.216046,  1.760331,  2.632245 )     0.83043220
  WF centre and spread   17  ( -0.216046,  2.085456,  2.632245 )     0.83043220
  WF centre and spread   18  ( -0.194979,  1.702127,  3.015726 )     0.83765966
  WF centre and spread   19  (  2.143660,  0.194979,  3.015727 )     0.83766129
  WF centre and spread   20  (  2.085456, -0.216046,  2.632245 )     0.83043419
  WF centre and spread   21  (  1.760331,  0.216047,  2.632245 )     0.83043406
  WF centre and spread   22  (  1.702127, -0.194979,  3.015727 )     0.83766138
  Sum of centres and spreads ( 23.074719, 23.074719, 35.211508 )    16.66096568
 
      7    -0.578E-02     0.1148225276       16.6609656821       0.05  <-- CONV
        O_D=      0.0051464 O_OD=      2.4367061 O_TOT=     16.6609657 <-- SPRD
 Delta: O_D= -0.3920226E-03 O_OD= -0.5390758E-02 O_TOT= -0.5782780E-02 <-- DLTA
 ------------------------------------------------------------------------------
 Cycle:      8
  WF centre and spread    1  ( -0.000000,  0.000000,  0.180702 )     1.71587745
  WF centre and spread    2  (  0.000000,  0.000000, -0.024276 )     0.67104936
  WF centre and spread    3  (  0.000000,  0.000000, -0.013821 )     0.68275232
  WF centre and spread    4  ( -0.000000, -0.000000, -0.013821 )     0.68275224
  WF centre and spread    5  (  0.000000, -0.000000, -0.025127 )     0.67241295
  WF centre and spread    6  (  0.000000, -0.000000, -0.025870 )     0.67362976
  WF centre and spread    7  (  1.922893,  1.922893,  2.381947 )     0.29592154
  WF centre and spread    8  (  1.922893,  1.922893,  2.436262 )     0.40347096
  WF centre and spread    9  (  1.922893,  1.922893,  2.383128 )     0.40323025
  WF centre and spread   10  (  1.922893,  1.922893,  2.383128 )     0.40323027
  WF centre and spread   11  (  2.103432,  2.103432,  0.940407 )     0.81426399
  WF centre and spread   12  (  2.114913,  1.730874,  0.538504 )     0.87563588
  WF centre and spread   13  (  1.730874,  2.114913,  0.538504 )     0.87563575
  WF centre and spread   14  (  1.742354,  1.742354,  0.940407 )     0.81426420
  WF centre and spread   15  (  0.194332,  2.144174,  3.015806 )     0.83826252
  WF centre and spread   16  (  0.216699,  1.760725,  2.632164 )     0.82957358
  WF centre and spread   17  ( -0.216699,  2.085061,  2.632164 )     0.82957359
  WF centre and spread   18  ( -0.194332,  1.701612,  3.015806 )     0.83826264
  WF centre and spread   19  (  2.144174,  0.194332,  3.015806 )     0.83826427
  WF centre and spread   20  (  2.085061, -0.216699,  2.632164 )     0.82957557
  WF centre and spread   21  (  1.760725,  0.216699,  2.632164 )     0.82957545
  WF centre and spread   22  (  1.701612, -0.194332,  3.015806 )     0.83826436
  Sum of centres and spreads ( 23.074719, 23.074719, 35.211955 )    16.65547891
 
      8    -0.549E-02     0.0827375365       16.6554789127       0.05  <-- CONV
        O_D=      0.0052821 O_OD=      2.4310836 O_TOT=     16.6554789 <-- SPRD
 Delta: O_D=  0.1357500E-03 O_OD= -0.5622519E-02 O_TOT= -0.5486769E-02 <-- DLTA
 ------------------------------------------------------------------------------
 Cycle:      9
  WF centre and spread    1  ( -0.000000,  0.000000,  0.180780 )     1.71644007
  WF centre and spread    2  (  0.000000,  0.000000, -0.024582 )     0.67074758
  WF centre and spread    3  (  0.000000,  0.000000, -0.013829 )     0.68138599
  WF centre and spread    4  ( -0.000000, -0.000000, -0.013829 )     0.68138591
  WF centre and spread    5  (  0.000000, -0.000000, -0.024848 )     0.67128628
  WF centre and spread    6  (  0.000000, -0.000000, -0.025950 )     0.67242783
  WF centre and spread    7  (  1.922893,  1.922893,  2.380887 )     0.29602433
  WF centre and spread    8  (  1.922893,  1.922893,  2.437916 )     0.40480130
  WF centre and spread    9  (  1.922893,  1.922893,  2.383051 )     0.40453862
  WF centre and spread   10  (  1.922893,  1.922893,  2.383051 )     0.40453866
  WF centre and spread   11  (  2.103283,  2.103283,  0.940477 )     0.81315766
  WF centre and spread   12  (  2.115308,  1.730479,  0.538419 )     0.87475395
  WF centre and spread   13  (  1.730479,  2.115308,  0.538419 )     0.87475382
  WF centre and spread   14  (  1.742504,  1.742504,  0.940478 )     0.81315787
  WF centre and spread   15  (  0.193386,  2.144924,  3.015928 )     0.83942724
  WF centre and spread   16  (  0.217651,  1.761278,  2.632024 )     0.82845154
  WF centre and spread   17  ( -0.217651,  2.084508,  2.632024 )     0.82845155
  WF centre and spread   18  ( -0.193386,  1.700862,  3.015928 )     0.83942735
  WF centre and spread   19  (  2.144925,  0.193386,  3.015928 )     0.83942900
  WF centre and spread   20  (  2.084508, -0.217651,  2.632024 )     0.82845352
  WF centre and spread   21  (  1.761278,  0.217651,  2.632024 )     0.82845340
  WF centre and spread   22  (  1.700862, -0.193386,  3.015928 )     0.83942909
  Sum of centres and spreads ( 23.074719, 23.074719, 35.212246 )    16.65092258
 
      9    -0.456E-02     0.0767282111       16.6509225833       0.05  <-- CONV
        O_D=      0.0052955 O_OD=      2.4265139 O_TOT=     16.6509226 <-- SPRD
 Delta: O_D=  0.1334062E-04 O_OD= -0.4569670E-02 O_TOT= -0.4556329E-02 <-- DLTA
 ------------------------------------------------------------------------------
 Cycle:     10
  WF centre and spread    1  ( -0.000000,  0.000000,  0.180833 )     1.71649169
  WF centre and spread    2  (  0.000000,  0.000000, -0.024915 )     0.67041247
  WF centre and spread    3  (  0.000000,  0.000000, -0.013885 )     0.67997372
  WF centre and spread    4  ( -0.000000, -0.000000, -0.013885 )     0.67997365
  WF centre and spread    5  (  0.000000, -0.000000, -0.024588 )     0.67016920
  WF centre and spread    6  (  0.000000, -0.000000, -0.026023 )     0.67141752
  WF centre and spread    7  (  1.922893,  1.922893,  2.379387 )     0.29636423
  WF centre and spread    8  (  1.922893,  1.922893,  2.440044 )     0.40681039
  WF centre and spread    9  (  1.922893,  1.922893,  2.382977 )     0.40613442
  WF centre and spread   10  (  1.922893,  1.922893,  2.382977 )     0.40613446
  WF centre and spread   11  (  2.103050,  2.103050,  0.940609 )     0.81191864
  WF centre and spread   12  (  2.115897,  1.729890,  0.538271 )     0.87333959
  WF centre and spread   13  (  1.729889,  2.115897,  0.538271 )     0.87333946
  WF centre and spread   14  (  1.742736,  1.742736,  0.940609 )     0.81191885
  WF centre and spread   15  (  0.192074,  2.145977,  3.016121 )     0.84102226
  WF centre and spread   16  (  0.218971,  1.762058,  2.631827 )     0.82704906
  WF centre and spread   17  ( -0.218971,  2.083729,  2.631827 )     0.82704907
  WF centre and spread   18  ( -0.192074,  1.699809,  3.016121 )     0.84102238
  WF centre and spread   19  (  2.145977,  0.192074,  3.016121 )     0.84102404
  WF centre and spread   20  (  2.083729, -0.218971,  2.631827 )     0.82705103
  WF centre and spread   21  (  1.762058,  0.218971,  2.631827 )     0.82705090
  WF centre and spread   22  (  1.699809, -0.192074,  3.016121 )     0.84102413
  Sum of centres and spreads ( 23.074719, 23.074719, 35.212473 )    16.64669116
 
     10    -0.423E-02     0.0711910913       16.6466911577       0.05  <-- CONV
        O_D=      0.0053141 O_OD=      2.4222639 O_TOT=     16.6466912 <-- SPRD
 Delta: O_D=  0.1864599E-04 O_OD= -0.4250072E-02 O_TOT= -0.4231426E-02 <-- DLTA
 ------------------------------------------------------------------------------
 Cycle:     11
  WF centre and spread    1  ( -0.000000,  0.000000,  0.180929 )     1.71631986
  WF centre and spread    2  (  0.000000,  0.000000, -0.025184 )     0.67001815
  WF centre and spread    3  (  0.000000,  0.000000, -0.013963 )     0.67881176
  WF centre and spread    4  ( -0.000000, -0.000000, -0.013963 )     0.67881169
  WF centre and spread    5  (  0.000000, -0.000000, -0.024424 )     0.66933255
  WF centre and spread    6  (  0.000000, -0.000000, -0.026065 )     0.67085316
  WF centre and spread    7  (  1.922893,  1.922893,  2.377560 )     0.29695424
  WF centre and spread    8  (  1.922893,  1.922893,  2.442336 )     0.40938105
  WF centre and spread    9  (  1.922893,  1.922893,  2.382932 )     0.40785056
  WF centre and spread   10  (  1.922893,  1.922893,  2.382932 )     0.40785061
  WF centre and spread   11  (  2.102698,  2.102699,  0.940815 )     0.81088558
  WF centre and spread   12  (  2.116595,  1.729192,  0.538083 )     0.87151829
  WF centre and spread   13  (  1.729191,  2.116595,  0.538083 )     0.87151815
  WF centre and spread   14  (  1.743088,  1.743088,  0.940816 )     0.81088579
  WF centre and spread   15  (  0.190532,  2.147236,  3.016379 )     0.84257541
  WF centre and spread   16  (  0.220530,  1.763014,  2.631598 )     0.82543785
  WF centre and spread   17  ( -0.220530,  2.082773,  2.631598 )     0.82543786
  WF centre and spread   18  ( -0.190532,  1.698551,  3.016379 )     0.84257552
  WF centre and spread   19  (  2.147236,  0.190532,  3.016379 )     0.84257720
  WF centre and spread   20  (  2.082773, -0.220530,  2.631598 )     0.82543980
  WF centre and spread   21  (  1.763014,  0.220530,  2.631598 )     0.82543968
  WF centre and spread   22  (  1.698551, -0.190533,  3.016379 )     0.84257729
  Sum of centres and spreads ( 23.074719, 23.074719, 35.212797 )    16.64305205
 
     11    -0.364E-02     0.0668818310       16.6430520487       0.05  <-- CONV
        O_D=      0.0052748 O_OD=      2.4186640 O_TOT=     16.6430520 <-- SPRD
 Delta: O_D= -0.3927099E-04 O_OD= -0.3599838E-02 O_TOT= -0.3639109E-02 <-- DLTA
 ------------------------------------------------------------------------------
 Cycle:     12
  WF centre and spread    1  ( -0.000000,  0.000000,  0.181059 )     1.71606847
  WF centre and spread    2  (  0.000000,  0.000000, -0.025346 )     0.66971844
  WF centre and spread    3  (  0.000000,  0.000000, -0.014015 )     0.67810749
  WF centre and spread    4  ( -0.000000, -0.000000, -0.014015 )     0.67810742
  WF centre and spread    5  (  0.000000, -0.000000, -0.024364 )     0.66892674
  WF centre and spread    6  (  0.000000, -0.000000, -0.026071 )     0.67073796
  WF centre and spread    7  (  1.922893,  1.922893,  2.375581 )     0.29760838
  WF centre and spread    8  (  1.922893,  1.922893,  2.444554 )     0.41205269
  WF centre and spread    9  (  1.922893,  1.922893,  2.382916 )     0.40946853
  WF centre and spread   10  (  1.922893,  1.922893,  2.382916 )     0.40946858
  WF centre and spread   11  (  2.102251,  2.102251,  0.941077 )     0.81038169
  WF centre and spread   12  (  2.117295,  1.728491,  0.537881 )     0.86964155
  WF centre and spread   13  (  1.728491,  2.117295,  0.537881 )     0.86964140
  WF centre and spread   14  (  1.743536,  1.743536,  0.941078 )     0.81038188
  WF centre and spread   15  (  0.188936,  2.148560,  3.016658 )     0.84371557
  WF centre and spread   16  (  0.222159,  1.764025,  2.631339 )     0.82373663
  WF centre and spread   17  ( -0.222159,  2.081762,  2.631339 )     0.82373663
  WF centre and spread   18  ( -0.188936,  1.697227,  3.016658 )     0.84371569
  WF centre and spread   19  (  2.148560,  0.188935,  3.016658 )     0.84371737
  WF centre and spread   20  (  2.081761, -0.222159,  2.631339 )     0.82373856
  WF centre and spread   21  (  1.764025,  0.222159,  2.631339 )     0.82373842
  WF centre and spread   22  (  1.697227, -0.188936,  3.016658 )     0.84371747
  Sum of centres and spreads ( 23.074719, 23.074719, 35.213119 )    16.64012757
 
     12    -0.292E-02     0.0636284188       16.6401275702       0.06  <-- CONV
        O_D=      0.0052573 O_OD=      2.4157570 O_TOT=     16.6401276 <-- SPRD
 Delta: O_D= -0.1750407E-04 O_OD= -0.2906974E-02 O_TOT= -0.2924478E-02 <-- DLTA
 ------------------------------------------------------------------------------
 Cycle:     13
  WF centre and spread    1  ( -0.000000,  0.000000,  0.181102 )     1.71594461
  WF centre and spread    2  (  0.000000,  0.000000, -0.025328 )     0.66978444
  WF centre and spread    3  (  0.000000,  0.000000, -0.014002 )     0.67832757
  WF centre and spread    4  ( -0.000000, -0.000000, -0.014002 )     0.67832751
  WF centre and spread    5  (  0.000000, -0.000000, -0.024404 )     0.66909829
  WF centre and spread    6  (  0.000000, -0.000000, -0.026054 )     0.67092861
  WF centre and spread    7  (  1.922893,  1.922893,  2.375290 )     0.29756431
  WF centre and spread    8  (  1.922893,  1.922893,  2.444831 )     0.41210217
  WF centre and spread    9  (  1.922893,  1.922893,  2.382922 )     0.40943613
  WF centre and spread   10  (  1.922893,  1.922893,  2.382922 )     0.40943619
  WF centre and spread   11  (  2.102159,  2.102159,  0.941099 )     0.81050884
  WF centre and spread   12  (  2.117358,  1.728429,  0.537861 )     0.86939389
  WF centre and spread   13  (  1.728429,  2.117358,  0.537861 )     0.86939375
  WF centre and spread   14  (  1.743627,  1.743627,  0.941099 )     0.81050903
  WF centre and spread   15  (  0.188746,  2.148736,  3.016694 )     0.84350444
  WF centre and spread   16  (  0.222352,  1.764153,  2.631297 )     0.82347389
  WF centre and spread   17  ( -0.222352,  2.081634,  2.631297 )     0.82347389
  WF centre and spread   18  ( -0.188746,  1.697051,  3.016694 )     0.84350457
  WF centre and spread   19  (  2.148736,  0.188746,  3.016694 )     0.84350626
  WF centre and spread   20  (  2.081634, -0.222352,  2.631297 )     0.82347583
  WF centre and spread   21  (  1.764153,  0.222352,  2.631297 )     0.82347568
  WF centre and spread   22  (  1.697051, -0.188746,  3.016694 )     0.84350635
  Sum of centres and spreads ( 23.074719, 23.074719, 35.213160 )    16.63867625
 
     13    -0.145E-02     0.0612618752       16.6386762460       0.06  <-- CONV
        O_D=      0.0051806 O_OD=      2.4143825 O_TOT=     16.6386762 <-- SPRD
 Delta: O_D= -0.7674579E-04 O_OD= -0.1374578E-02 O_TOT= -0.1451324E-02 <-- DLTA
 ------------------------------------------------------------------------------
 Cycle:     14
  WF centre and spread    1  ( -0.000000,  0.000000,  0.181291 )     1.71582773
  WF centre and spread    2  (  0.000000,  0.000000, -0.025280 )     0.67012287
  WF centre and spread    3  (  0.000000,  0.000000, -0.013962 )     0.67925421
  WF centre and spread    4  ( -0.000000, -0.000000, -0.013962 )     0.67925414
  WF centre and spread    5  (  0.000000, -0.000000, -0.024553 )     0.66980398
  WF centre and spread    6  (  0.000000, -0.000000, -0.025994 )     0.67169570
  WF centre and spread    7  (  1.922893,  1.922893,  2.374140 )     0.29752706
  WF centre and spread    8  (  1.922893,  1.922893,  2.445932 )     0.41235306
  WF centre and spread    9  (  1.922893,  1.922893,  2.382943 )     0.40933365
  WF centre and spread   10  (  1.922893,  1.922893,  2.382943 )     0.40933370
  WF centre and spread   11  (  2.101806,  2.101806,  0.941186 )     0.81124091
  WF centre and spread   12  (  2.117612,  1.728174,  0.537788 )     0.86868793
  WF centre and spread   13  (  1.728174,  2.117612,  0.537788 )     0.86868777
  WF centre and spread   14  (  1.743981,  1.743981,  0.941186 )     0.81124110
  WF centre and spread   15  (  0.187996,  2.149419,  3.016837 )     0.84293441
  WF centre and spread   16  (  0.223101,  1.764678,  2.631160 )     0.82268164
  WF centre and spread   17  ( -0.223101,  2.081108,  2.631160 )     0.82268163
  WF centre and spread   18  ( -0.187996,  1.696368,  3.016837 )     0.84293454
  WF centre and spread   19  (  2.149419,  0.187996,  3.016838 )     0.84293622
  WF centre and spread   20  (  2.081108, -0.223101,  2.631160 )     0.82268356
  WF centre and spread   21  (  1.764678,  0.223101,  2.631160 )     0.82268341
  WF centre and spread   22  (  1.696368, -0.187996,  3.016837 )     0.84293632
  Sum of centres and spreads ( 23.074719, 23.074719, 35.213437 )    16.63683555
 
     14    -0.184E-02     0.0424137277       16.6368355532       0.06  <-- CONV
        O_D=      0.0052158 O_OD=      2.4125066 O_TOT=     16.6368356 <-- SPRD
 Delta: O_D=  0.3518077E-04 O_OD= -0.1875874E-02 O_TOT= -0.1840693E-02 <-- DLTA
 ------------------------------------------------------------------------------
 Cycle:     15
  WF centre and spread    1  ( -0.000000,  0.000000,  0.181620 )     1.71547413
  WF centre and spread    2  (  0.000000,  0.000000, -0.025254 )     0.67070508
  WF centre and spread    3  (  0.000000,  0.000000, -0.013925 )     0.68079930
  WF centre and spread    4  ( -0.000000, -0.000000, -0.013926 )     0.68079923
  WF centre and spread    5  (  0.000000, -0.000000, -0.024797 )     0.67096338
  WF centre and spread    6  (  0.000000, -0.000000, -0.025900 )     0.67298509
  WF centre and spread    7  (  1.922893,  1.922893,  2.372034 )     0.29747655
  WF centre and spread    8  (  1.922893,  1.922893,  2.447984 )     0.41270168
  WF centre and spread    9  (  1.922893,  1.922893,  2.382973 )     0.40907208
  WF centre and spread   10  (  1.922893,  1.922893,  2.382973 )     0.40907213
  WF centre and spread   11  (  2.101197,  2.101197,  0.941339 )     0.81246002
  WF centre and spread   12  (  2.118105,  1.727681,  0.537670 )     0.86752510
  WF centre and spread   13  (  1.727681,  2.118105,  0.537670 )     0.86752494
  WF centre and spread   14  (  1.744590,  1.744590,  0.941339 )     0.81246020
  WF centre and spread   15  (  0.186619,  2.150637,  3.017099 )     0.84228597
  WF centre and spread   16  (  0.224442,  1.765655,  2.630943 )     0.82134853
  WF centre and spread   17  ( -0.224442,  2.080131,  2.630943 )     0.82134851
  WF centre and spread   18  ( -0.186619,  1.695150,  3.017099 )     0.84228609
  WF centre and spread   19  (  2.150637,  0.186619,  3.017099 )     0.84228778
  WF centre and spread   20  (  2.080131, -0.224442,  2.630943 )     0.82135045
  WF centre and spread   21  (  1.765655,  0.224442,  2.630943 )     0.82135026
  WF centre and spread   22  (  1.695149, -0.186619,  3.017099 )     0.84228787
  Sum of centres and spreads ( 23.074719, 23.074719, 35.213967 )    16.63456436
 
     15    -0.227E-02     0.0511109963       16.6345643564       0.06  <-- CONV
        O_D=      0.0052199 O_OD=      2.4102313 O_TOT=     16.6345644 <-- SPRD
 Delta: O_D=  0.4090194E-05 O_OD= -0.2275287E-02 O_TOT= -0.2271197E-02 <-- DLTA
 ------------------------------------------------------------------------------
 Cycle:     16
  WF centre and spread    1  ( -0.000000,  0.000000,  0.181896 )     1.71484164
  WF centre and spread    2  (  0.000000,  0.000000, -0.025307 )     0.67125544
  WF centre and spread    3  (  0.000000,  0.000000, -0.013912 )     0.68231679
  WF centre and spread    4  ( -0.000000, -0.000000, -0.013912 )     0.68231672
  WF centre and spread    5  (  0.000000, -0.000000, -0.025042 )     0.67208137
  WF centre and spread    6  (  0.000000, -0.000000, -0.025818 )     0.67418894
  WF centre and spread    7  (  1.922893,  1.922893,  2.369217 )     0.29743352
  WF centre and spread    8  (  1.922893,  1.922893,  2.450782 )     0.41290185
  WF centre and spread    9  (  1.922893,  1.922893,  2.383003 )     0.40857331
  WF centre and spread   10  (  1.922893,  1.922893,  2.383003 )     0.40857335
  WF centre and spread   11  (  2.100462,  2.100462,  0.941511 )     0.81387040
  WF centre and spread   12  (  2.118788,  1.726998,  0.537521 )     0.86600813
  WF centre and spread   13  (  1.726998,  2.118789,  0.537521 )     0.86600791
  WF centre and spread   14  (  1.745324,  1.745324,  0.941511 )     0.81387057
  WF centre and spread   15  (  0.184782,  2.152192,  3.017425 )     0.84215215
  WF centre and spread   16  (  0.226192,  1.766938,  2.630668 )     0.81986727
  WF centre and spread   17  ( -0.226192,  2.078848,  2.630668 )     0.81986723
  WF centre and spread   18  ( -0.184782,  1.693595,  3.017425 )     0.84215228
  WF centre and spread   19  (  2.152192,  0.184782,  3.017425 )     0.84215397
  WF centre and spread   20  (  2.078848, -0.226192,  2.630668 )     0.81986919
  WF centre and spread   21  (  1.766938,  0.226192,  2.630668 )     0.81986894
  WF centre and spread   22  (  1.693594, -0.184782,  3.017425 )     0.84215406
  Sum of centres and spreads ( 23.074719, 23.074719, 35.214344 )    16.63232504
 
     16    -0.224E-02     0.0502892645       16.6323250396       0.07  <-- CONV
        O_D=      0.0052285 O_OD=      2.4079834 O_TOT=     16.6323250 <-- SPRD
 Delta: O_D=  0.8626691E-05 O_OD= -0.2247943E-02 O_TOT= -0.2239317E-02 <-- DLTA
 ------------------------------------------------------------------------------
 Cycle:     17
  WF centre and spread    1  ( -0.000000,  0.000000,  0.182194 )     1.71395635
  WF centre and spread    2  (  0.000000,  0.000000, -0.025511 )     0.67179685
  WF centre and spread    3  (  0.000000,  0.000000, -0.013912 )     0.68407538
  WF centre and spread    4  ( -0.000000, -0.000000, -0.013912 )     0.68407530
  WF centre and spread    5  (  0.000000, -0.000000, -0.025347 )     0.67337980
  WF centre and spread    6  (  0.000000, -0.000000, -0.025743 )     0.67539705
  WF centre and spread    7  (  1.922893,  1.922893,  2.364108 )     0.29745181
  WF centre and spread    8  (  1.922893,  1.922893,  2.455894 )     0.41289572
  WF centre and spread    9  (  1.922893,  1.922893,  2.383044 )     0.40771308
  WF centre and spread   10  (  1.922893,  1.922893,  2.383044 )     0.40771312
  WF centre and spread   11  (  2.099228,  2.099228,  0.941776 )     0.81619314
  WF centre and spread   12  (  2.120004,  1.725782,  0.537273 )     0.86339269
  WF centre and spread   13  (  1.725782,  2.120005,  0.537272 )     0.86339236
  WF centre and spread   14  (  1.746559,  1.746558,  0.941776 )     0.81619328
  WF centre and spread   15  (  0.181475,  2.154876,  3.017982 )     0.84285170
  WF centre and spread   16  (  0.229282,  1.769227,  2.630180 )     0.81748592
  WF centre and spread   17  ( -0.229282,  2.076560,  2.630181 )     0.81748583
  WF centre and spread   18  ( -0.181475,  1.690910,  3.017982 )     0.84285185
  WF centre and spread   19  (  2.154876,  0.181475,  3.017982 )     0.84285354
  WF centre and spread   20  (  2.076560, -0.229282,  2.630180 )     0.81748782
  WF centre and spread   21  (  1.769227,  0.229283,  2.630181 )     0.81748746
  WF centre and spread   22  (  1.690910, -0.181475,  3.017982 )     0.84285363
  Sum of centres and spreads ( 23.074719, 23.074719, 35.214606 )    16.62898369
 
     17    -0.334E-02     0.0578939167       16.6289836922       0.07  <-- CONV
        O_D=      0.0051393 O_OD=      2.4047312 O_TOT=     16.6289837 <-- SPRD
 Delta: O_D= -0.8917440E-04 O_OD= -0.3252173E-02 O_TOT= -0.3341347E-02 <-- DLTA
 ------------------------------------------------------------------------------
 Cycle:     18
  WF centre and spread    1  ( -0.000000,  0.000000,  0.182583 )     1.71387501
  WF centre and spread    2  (  0.000000,  0.000000, -0.025902 )     0.67206645
  WF centre and spread    3  (  0.000000,  0.000000, -0.013893 )     0.68535794
  WF centre and spread    4  ( -0.000000, -0.000000, -0.013893 )     0.68535785
  WF centre and spread    5  (  0.000000, -0.000000, -0.025580 )     0.67432792
  WF centre and spread    6  (  0.000000, -0.000000, -0.025724 )     0.67582232
  WF centre and spread    7  (  1.922893,  1.922893,  2.356895 )     0.29753559
  WF centre and spread    8  (  1.922893,  1.922893,  2.463139 )     0.41241017
  WF centre and spread    9  (  1.922893,  1.922893,  2.383082 )     0.40683066
  WF centre and spread   10  (  1.922893,  1.922893,  2.383082 )     0.40683070
  WF centre and spread   11  (  2.097551,  2.097551,  0.942097 )     0.81942584
  WF centre and spread   12  (  2.121598,  1.724189,  0.536992 )     0.86000954
  WF centre and spread   13  (  1.724188,  2.121598,  0.536992 )     0.86000897
  WF centre and spread   14  (  1.748236,  1.748236,  0.942097 )     0.81942594
  WF centre and spread   15  (  0.176853,  2.158457,  3.018712 )     0.84454462
  WF centre and spread   16  (  0.233507,  1.772458,  2.629522 )     0.81434901
  WF centre and spread   17  ( -0.233507,  2.073328,  2.629522 )     0.81434881
  WF centre and spread   18  ( -0.176853,  1.687329,  3.018712 )     0.84454481
  WF centre and spread   19  (  2.158457,  0.176853,  3.018713 )     0.84454649
  WF centre and spread   20  (  2.073328, -0.233507,  2.629522 )     0.81435089
  WF centre and spread   21  (  1.772458,  0.233507,  2.629522 )     0.81435032
  WF centre and spread   22  (  1.687329, -0.176853,  3.018713 )     0.84454660
  Sum of centres and spreads ( 23.074719, 23.074719, 35.214905 )    16.62486646
 
     18    -0.412E-02     0.0673291752       16.6248664558       0.07  <-- CONV
        O_D=      0.0053712 O_OD=      2.4003820 O_TOT=     16.6248665 <-- SPRD
 Delta: O_D=  0.2319127E-03 O_OD= -0.4349149E-02 O_TOT= -0.4117236E-02 <-- DLTA
 ------------------------------------------------------------------------------
 Cycle:     19
  WF centre and spread    1  ( -0.000000,  0.000000,  0.182661 )     1.71418200
  WF centre and spread    2  (  0.000000,  0.000000, -0.025981 )     0.67179165
  WF centre and spread    3  (  0.000000,  0.000000, -0.013863 )     0.68471586
  WF centre and spread    4  ( -0.000000, -0.000000, -0.013863 )     0.68471577
  WF centre and spread    5  (  0.000000, -0.000000, -0.025466 )     0.67384742
  WF centre and spread    6  (  0.000000, -0.000000, -0.025759 )     0.67518181
  WF centre and spread    7  (  1.922893,  1.922893,  2.356382 )     0.29747512
  WF centre and spread    8  (  1.922893,  1.922893,  2.463672 )     0.41212312
  WF centre and spread    9  (  1.922893,  1.922893,  2.383072 )     0.40693419
  WF centre and spread   10  (  1.922893,  1.922893,  2.383072 )     0.40693423
  WF centre and spread   11  (  2.097479,  2.097479,  0.942116 )     0.81936563
  WF centre and spread   12  (  2.121609,  1.724178,  0.537003 )     0.85975028
  WF centre and spread   13  (  1.724178,  2.121609,  0.537003 )     0.85974953
  WF centre and spread   14  (  1.748307,  1.748307,  0.942116 )     0.81936572
  WF centre and spread   15  (  0.176608,  2.158607,  3.018714 )     0.84475270
  WF centre and spread   16  (  0.233734,  1.772642,  2.629497 )     0.81404671
  WF centre and spread   17  ( -0.233734,  2.073145,  2.629497 )     0.81404643
  WF centre and spread   18  ( -0.176608,  1.687179,  3.018714 )     0.84475291
  WF centre and spread   19  (  2.158608,  0.176608,  3.018714 )     0.84475457
  WF centre and spread   20  (  2.073145, -0.233734,  2.629497 )     0.81404860
  WF centre and spread   21  (  1.772642,  0.233734,  2.629497 )     0.81404789
  WF centre and spread   22  (  1.687179, -0.176608,  3.018714 )     0.84475468
  Sum of centres and spreads ( 23.074719, 23.074719, 35.215009 )    16.62133683
 
     19    -0.353E-02     0.0897363457       16.6213368330       0.07  <-- CONV
        O_D=      0.0051516 O_OD=      2.3970721 O_TOT=     16.6213368 <-- SPRD
 Delta: O_D= -0.2196647E-03 O_OD= -0.3309958E-02 O_TOT= -0.3529623E-02 <-- DLTA
 ------------------------------------------------------------------------------
 Cycle:     20
  WF centre and spread    1  ( -0.000000,  0.000000,  0.182777 )     1.71514994
  WF centre and spread    2  (  0.000000,  0.000000, -0.026179 )     0.67122777
  WF centre and spread    3  (  0.000000,  0.000000, -0.013816 )     0.68325547
  WF centre and spread    4  ( -0.000000, -0.000000, -0.013816 )     0.68325539
  WF centre and spread    5  (  0.000000, -0.000000, -0.025204 )     0.67275309
  WF centre and spread    6  (  0.000000, -0.000000, -0.025845 )     0.67379480
  WF centre and spread    7  (  1.922893,  1.922893,  2.354993 )     0.29741176
  WF centre and spread    8  (  1.922893,  1.922893,  2.465114 )     0.41145674
  WF centre and spread    9  (  1.922893,  1.922893,  2.383044 )     0.40725665
  WF centre and spread   10  (  1.922893,  1.922893,  2.383044 )     0.40725669
  WF centre and spread   11  (  2.097312,  2.097313,  0.942156 )     0.81962040
  WF centre and spread   12  (  2.121677,  1.724109,  0.537014 )     0.85950301
  WF centre and spread   13  (  1.724109,  2.121677,  0.537014 )     0.85950212
  WF centre and spread   14  (  1.748474,  1.748474,  0.942157 )     0.81962046
  WF centre and spread   15  (  0.175951,  2.159019,  3.018741 )     0.84565808
  WF centre and spread   16  (  0.234339,  1.773117,  2.629426 )     0.81359313
  WF centre and spread   17  ( -0.234339,  2.072669,  2.629426 )     0.81359278
  WF centre and spread   18  ( -0.175951,  1.686767,  3.018741 )     0.84565831
  WF centre and spread   19  (  2.159020,  0.175950,  3.018741 )     0.84565996
  WF centre and spread   20  (  2.072669, -0.234339,  2.629426 )     0.81359502
  WF centre and spread   21  (  1.773118,  0.234339,  2.629426 )     0.81359419
  WF centre and spread   22  (  1.686767, -0.175951,  3.018741 )     0.84566008
  Sum of centres and spreads ( 23.074719, 23.074719, 35.215122 )    16.61807583
 
     20    -0.326E-02     0.0650521386       16.6180758255       0.07  <-- CONV
        O_D=      0.0052018 O_OD=      2.3937608 O_TOT=     16.6180758 <-- SPRD
 Delta: O_D=  0.5028761E-04 O_OD= -0.3311295E-02 O_TOT= -0.3261007E-02 <-- DLTA
 ------------------------------------------------------------------------------
 Cycle:     21
  WF centre and spread    1  ( -0.000000,  0.000000,  0.182819 )     1.71568897
  WF centre and spread    2  (  0.000000,  0.000000, -0.026423 )     0.67065402
  WF centre and spread    3  (  0.000000,  0.000000, -0.013807 )     0.68161923
  WF centre and spread    4  ( -0.000000, -0.000000, -0.013807 )     0.68161915
  WF centre and spread    5  (  0.000000, -0.000000, -0.024924 )     0.67152288
  WF centre and spread    6  (  0.000000, -0.000000, -0.025939 )     0.67244632
  WF centre and spread    7  (  1.922893,  1.922893,  2.353077 )     0.29728788
  WF centre and spread    8  (  1.922893,  1.922893,  2.467117 )     0.41060243
  WF centre and spread    9  (  1.922893,  1.922893,  2.383010 )     0.40759450
  WF centre and spread   10  (  1.922893,  1.922893,  2.383010 )     0.40759455
  WF centre and spread   11  (  2.097128,  2.097129,  0.942193 )     0.81994621
  WF centre and spread   12  (  2.121830,  1.723956,  0.537010 )     0.85925660
  WF centre and spread   13  (  1.723956,  2.121830,  0.537010 )     0.85925592
  WF centre and spread   14  (  1.748658,  1.748658,  0.942193 )     0.81994630
  WF centre and spread   15  (  0.175053,  2.159595,  3.018804 )     0.84705289
  WF centre and spread   16  (  0.235154,  1.773743,  2.629322 )     0.81305971
  WF centre and spread   17  ( -0.235154,  2.072043,  2.629322 )     0.81305946
  WF centre and spread   18  ( -0.175053,  1.686191,  3.018804 )     0.84705310
  WF centre and spread   19  (  2.159595,  0.175052,  3.018804 )     0.84705479
  WF centre and spread   20  (  2.072043, -0.235154,  2.629322 )     0.81306158
  WF centre and spread   21  (  1.773744,  0.235154,  2.629322 )     0.81306092
  WF centre and spread   22  (  1.686191, -0.175053,  3.018804 )     0.84705490
  Sum of centres and spreads ( 23.074719, 23.074719, 35.215046 )    16.61549232
 
     21    -0.258E-02     0.0617804681       16.6154923215       0.08  <-- CONV
        O_D=      0.0052145 O_OD=      2.3911646 O_TOT=     16.6154923 <-- SPRD
 Delta: O_D=  0.1268043E-04 O_OD= -0.2596184E-02 O_TOT= -0.2583504E-02 <-- DLTA
 ------------------------------------------------------------------------------
 Cycle:     22
  WF centre and spread    1  ( -0.000000,  0.000000,  0.182815 )     1.71565054
  WF centre and spread    2  (  0.000000,  0.000000, -0.026724 )     0.67014917
  WF centre and spread    3  (  0.000000,  0.000000, -0.013858 )     0.67987487
  WF centre and spread    4  ( -0.000000, -0.000000, -0.013858 )     0.67987480
  WF centre and spread    5  (  0.000000, -0.000000, -0.024636 )     0.67020441
  WF centre and spread    6  (  0.000000, -0.000000, -0.026026 )     0.67125218
  WF centre and spread    7  (  1.922893,  1.922893,  2.350173 )     0.29714045
  WF centre and spread    8  (  1.922893,  1.922893,  2.470154 )     0.40951793
  WF centre and spread    9  (  1.922893,  1.922893,  2.382974 )     0.40787117
  WF centre and spread   10  (  1.922893,  1.922893,  2.382974 )     0.40787121
  WF centre and spread   11  (  2.096887,  2.096887,  0.942227 )     0.82030924
  WF centre and spread   12  (  2.122112,  1.723675,  0.536991 )     0.85877353
  WF centre and spread   13  (  1.723675,  2.122112,  0.536991 )     0.85877265
  WF centre and spread   14  (  1.748900,  1.748900,  0.942227 )     0.82030929
  WF centre and spread   15  (  0.173720,  2.160475,  3.018931 )     0.84904171
  WF centre and spread   16  (  0.236337,  1.774666,  2.629168 )     0.81231601
  WF centre and spread   17  ( -0.236338,  2.071120,  2.629168 )     0.81231567
  WF centre and spread   18  ( -0.173720,  1.685312,  3.018931 )     0.84904195
  WF centre and spread   19  (  2.160475,  0.173720,  3.018932 )     0.84904362
  WF centre and spread   20  (  2.071120, -0.236338,  2.629167 )     0.81231789
  WF centre and spread   21  (  1.774666,  0.236338,  2.629168 )     0.81231706
  WF centre and spread   22  (  1.685311, -0.173720,  3.018931 )     0.84904375
  Sum of centres and spreads ( 23.074719, 23.074719, 35.214819 )    16.61300908
 
     22    -0.248E-02     0.0537878568       16.6130090844       0.08  <-- CONV
        O_D=      0.0052727 O_OD=      2.3886232 O_TOT=     16.6130091 <-- SPRD
 Delta: O_D=  0.5816950E-04 O_OD= -0.2541407E-02 O_TOT= -0.2483237E-02 <-- DLTA
 ------------------------------------------------------------------------------
 Cycle:     23
  WF centre and spread    1  ( -0.000000,  0.000000,  0.182858 )     1.71533330
  WF centre and spread    2  (  0.000000,  0.000000, -0.027024 )     0.66982884
  WF centre and spread    3  (  0.000000,  0.000000, -0.013954 )     0.67843800
  WF centre and spread    4  ( -0.000000, -0.000000, -0.013954 )     0.67843793
  WF centre and spread    5  (  0.000000, -0.000000, -0.024408 )     0.66914046
  WF centre and spread    6  (  0.000000, -0.000000, -0.026084 )     0.67049654
  WF centre and spread    7  (  1.922893,  1.922893,  2.346385 )     0.29696242
  WF centre and spread    8  (  1.922893,  1.922893,  2.474082 )     0.40834269
  WF centre and spread    9  (  1.922893,  1.922893,  2.382943 )     0.40814579
  WF centre and spread   10  (  1.922893,  1.922893,  2.382943 )     0.40814584
  WF centre and spread   11  (  2.096568,  2.096568,  0.942269 )     0.82073124
  WF centre and spread   12  (  2.122479,  1.723308,  0.536962 )     0.85805628
  WF centre and spread   13  (  1.723308,  2.122479,  0.536962 )     0.85805524
  WF centre and spread   14  (  1.749219,  1.749219,  0.942270 )     0.82073125
  WF centre and spread   15  (  0.172026,  2.161628,  3.019134 )     0.85118235
  WF centre and spread   16  (  0.237816,  1.775859,  2.628974 )     0.81126305
  WF centre and spread   17  ( -0.237816,  2.069927,  2.628974 )     0.81126264
  WF centre and spread   18  ( -0.172026,  1.684158,  3.019134 )     0.85118262
  WF centre and spread   19  (  2.161628,  0.172026,  3.019134 )     0.85118428
  WF centre and spread   20  (  2.069927, -0.237816,  2.628974 )     0.81126492
  WF centre and spread   21  (  1.775860,  0.237816,  2.628974 )     0.81126395
  WF centre and spread   22  (  1.684158, -0.172026,  3.019134 )     0.85118442
  Sum of centres and spreads ( 23.074719, 23.074719, 35.214682 )    16.61063406
 
     23    -0.238E-02     0.0551582772       16.6106340575       0.08  <-- CONV
        O_D=      0.0051850 O_OD=      2.3863359 O_TOT=     16.6106341 <-- SPRD
 Delta: O_D= -0.8771945E-04 O_OD= -0.2287308E-02 O_TOT= -0.2375027E-02 <-- DLTA
 ------------------------------------------------------------------------------
 Cycle:     24
  WF centre and spread    1  ( -0.000000,  0.000000,  0.182985 )     1.71509779
  WF centre and spread    2  (  0.000000,  0.000000, -0.027245 )     0.66978634
  WF centre and spread    3  (  0.000000,  0.000000, -0.014041 )     0.67767378
  WF centre and spread    4  ( -0.000000, -0.000000, -0.014041 )     0.67767372
  WF centre and spread    5  (  0.000000, -0.000000, -0.024295 )     0.66860269
  WF centre and spread    6  (  0.000000, -0.000000, -0.026096 )     0.67032477
  WF centre and spread    7  (  1.922893,  1.922893,  2.341959 )     0.29673857
  WF centre and spread    8  (  1.922893,  1.922893,  2.478613 )     0.40724830
  WF centre and spread    9  (  1.922893,  1.922893,  2.382925 )     0.40847104
  WF centre and spread   10  (  1.922893,  1.922893,  2.382925 )     0.40847109
  WF centre and spread   11  (  2.096173,  2.096173,  0.942321 )     0.82139783
  WF centre and spread   12  (  2.122860,  1.722926,  0.536926 )     0.85720675
  WF centre and spread   13  (  1.722926,  2.122860,  0.536926 )     0.85720500
  WF centre and spread   14  (  1.749613,  1.749613,  0.942321 )     0.82139771
  WF centre and spread   15  (  0.170120,  2.162967,  3.019393 )     0.85287372
  WF centre and spread   16  (  0.239470,  1.777227,  2.628736 )     0.80993827
  WF centre and spread   17  ( -0.239470,  2.068559,  2.628736 )     0.80993754
  WF centre and spread   18  ( -0.170119,  1.682819,  3.019393 )     0.85287411
  WF centre and spread   19  (  2.162967,  0.170119,  3.019393 )     0.85287567
  WF centre and spread   20  (  2.068559, -0.239471,  2.628736 )     0.80994017
  WF centre and spread   21  (  1.777227,  0.239471,  2.628736 )     0.80993859
  WF centre and spread   22  (  1.682819, -0.170120,  3.019393 )     0.85287584
  Sum of centres and spreads ( 23.074719, 23.074719, 35.214701 )    16.60854930
 
     24    -0.208E-02     0.0507847765       16.6085493045       0.08  <-- CONV
        O_D=      0.0052923 O_OD=      2.3841438 O_TOT=     16.6085493 <-- SPRD
 Delta: O_D=  0.1073669E-03 O_OD= -0.2192120E-02 O_TOT= -0.2084753E-02 <-- DLTA
 ------------------------------------------------------------------------------
 Cycle:     25
  WF centre and spread    1  ( -0.000000,  0.000000,  0.183047 )     1.71498278
  WF centre and spread    2  (  0.000000,  0.000000, -0.027214 )     0.66990171
  WF centre and spread    3  (  0.000000,  0.000000, -0.014021 )     0.67797586
  WF centre and spread    4  ( -0.000000, -0.000000, -0.014021 )     0.67797579
  WF centre and spread    5  (  0.000000, -0.000000, -0.024346 )     0.66882905
  WF centre and spread    6  (  0.000000, -0.000000, -0.026071 )     0.67058126
  WF centre and spread    7  (  1.922893,  1.922893,  2.341331 )     0.29666715
  WF centre and spread    8  (  1.922893,  1.922893,  2.479222 )     0.40719875
  WF centre and spread    9  (  1.922893,  1.922893,  2.382932 )     0.40847957
  WF centre and spread   10  (  1.922893,  1.922893,  2.382932 )     0.40847962
  WF centre and spread   11  (  2.096111,  2.096112,  0.942326 )     0.82146326
  WF centre and spread   12  (  2.122878,  1.722908,  0.536922 )     0.85700002
  WF centre and spread   13  (  1.722908,  2.122878,  0.536922 )     0.85699779
  WF centre and spread   14  (  1.749675,  1.749675,  0.942326 )     0.82146305
  WF centre and spread   15  (  0.169905,  2.163148,  3.019430 )     0.85254963
  WF centre and spread   16  (  0.239668,  1.777387,  2.628689 )     0.80962600
  WF centre and spread   17  ( -0.239668,  2.068400,  2.628689 )     0.80962507
  WF centre and spread   18  ( -0.169905,  1.682638,  3.019430 )     0.85255009
  WF centre and spread   19  (  2.163148,  0.169905,  3.019430 )     0.85255158
  WF centre and spread   20  (  2.068400, -0.239668,  2.628689 )     0.80962792
  WF centre and spread   21  (  1.777387,  0.239668,  2.628689 )     0.80962596
  WF centre and spread   22  (  1.682638, -0.169905,  3.019430 )     0.85255177
  Sum of centres and spreads ( 23.074719, 23.074719, 35.214764 )    16.60670368
 
     25    -0.185E-02     0.0655090282       16.6067036810       0.09  <-- CONV
        O_D=      0.0051951 O_OD=      2.3823954 O_TOT=     16.6067037 <-- SPRD
 Delta: O_D= -0.9724475E-04 O_OD= -0.1748379E-02 O_TOT= -0.1845623E-02 <-- DLTA
 ------------------------------------------------------------------------------
 Cycle:     26
  WF centre and spread    1  ( -0.000000,  0.000000,  0.183276 )     1.71495863
  WF centre and spread    2  (  0.000000,  0.000000, -0.027129 )     0.67038078
  WF centre and spread    3  (  0.000000,  0.000000, -0.013972 )     0.67912357
  WF centre and spread    4  ( -0.000000, -0.000000, -0.013972 )     0.67912350
  WF centre and spread    5  (  0.000000, -0.000000, -0.024524 )     0.66968365
  WF centre and spread    6  (  0.000000, -0.000000, -0.025991 )     0.67154408
  WF centre and spread    7  (  1.922893,  1.922893,  2.339060 )     0.29650328
  WF centre and spread    8  (  1.922893,  1.922893,  2.481441 )     0.40705392
  WF centre and spread    9  (  1.922893,  1.922893,  2.382949 )     0.40852912
  WF centre and spread   10  (  1.922893,  1.922893,  2.382949 )     0.40852917
  WF centre and spread   11  (  2.095896,  2.095896,  0.942349 )     0.82196447
  WF centre and spread   12  (  2.122961,  1.722825,  0.536912 )     0.85658119
  WF centre and spread   13  (  1.722825,  2.122961,  0.536912 )     0.85657613
  WF centre and spread   14  (  1.749890,  1.749890,  0.942349 )     0.82196376
  WF centre and spread   15  (  0.169123,  2.163795,  3.019575 )     0.85167235
  WF centre and spread   16  (  0.240370,  1.777985,  2.628548 )     0.80878222
  WF centre and spread   17  ( -0.240370,  2.067801,  2.628548 )     0.80878004
  WF centre and spread   18  ( -0.169123,  1.681992,  3.019575 )     0.85167324
  WF centre and spread   19  (  2.163795,  0.169123,  3.019575 )     0.85167429
  WF centre and spread   20  (  2.067801, -0.240370,  2.628548 )     0.80878428
  WF centre and spread   21  (  1.777986,  0.240370,  2.628548 )     0.80877996
  WF centre and spread   22  (  1.681992, -0.169123,  3.019575 )     0.85167460
  Sum of centres and spreads ( 23.074719, 23.074719, 35.215103 )    16.60433624
 
     26    -0.237E-02     0.0487402824       16.6043362417       0.09  <-- CONV
        O_D=      0.0052780 O_OD=      2.3799450 O_TOT=     16.6043362 <-- SPRD
 Delta: O_D=  0.8291230E-04 O_OD= -0.2450352E-02 O_TOT= -0.2367439E-02 <-- DLTA
 ------------------------------------------------------------------------------
 Cycle:     27
  WF centre and spread    1  ( -0.000000,  0.000000,  0.183613 )     1.71465229
  WF centre and spread    2  (  0.000000,  0.000000, -0.027053 )     0.67114587
  WF centre and spread    3  (  0.000000,  0.000000, -0.013934 )     0.68092947
  WF centre and spread    4  ( -0.000000, -0.000000, -0.013934 )     0.68092940
  WF centre and spread    5  (  0.000000, -0.000000, -0.024807 )     0.67102169
  WF centre and spread    6  (  0.000000, -0.000000, -0.025877 )     0.67309918
  WF centre and spread    7  (  1.922893,  1.922893,  2.335100 )     0.29619549
  WF centre and spread    8  (  1.922893,  1.922893,  2.485351 )     0.40667057
  WF centre and spread    9  (  1.922893,  1.922893,  2.382975 )     0.40852342
  WF centre and spread   10  (  1.922893,  1.922893,  2.382975 )     0.40852346
  WF centre and spread   11  (  2.095565,  2.095565,  0.942386 )     0.82272090
  WF centre and spread   12  (  2.123153,  1.722633,  0.536894 )     0.85601388
  WF centre and spread   13  (  1.722633,  2.123153,  0.536894 )     0.85600614
  WF centre and spread   14  (  1.750221,  1.750221,  0.942386 )     0.82271968
  WF centre and spread   15  (  0.167750,  2.164898,  3.019836 )     0.85062350
  WF centre and spread   16  (  0.241569,  1.779039,  2.628337 )     0.80747253
  WF centre and spread   17  ( -0.241569,  2.066748,  2.628337 )     0.80746918
  WF centre and spread   18  ( -0.167750,  1.680888,  3.019836 )     0.85062482
  WF centre and spread   19  (  2.164898,  0.167750,  3.019836 )     0.85062542
  WF centre and spread   20  (  2.066747, -0.241570,  2.628337 )     0.80747471
  WF centre and spread   21  (  1.779039,  0.241570,  2.628337 )     0.80746816
  WF centre and spread   22  (  1.680888, -0.167750,  3.019836 )     0.85062586
  Sum of centres and spreads ( 23.074719, 23.074719, 35.215662 )    16.60153559
 
     27    -0.280E-02     0.0575262788       16.6015355924       0.09  <-- CONV
        O_D=      0.0052467 O_OD=      2.3771757 O_TOT=     16.6015356 <-- SPRD
 Delta: O_D= -0.3130762E-04 O_OD= -0.2769342E-02 O_TOT= -0.2800649E-02 <-- DLTA
 ------------------------------------------------------------------------------
 Cycle:     28
  WF centre and spread    1  ( -0.000000,  0.000000,  0.183870 )     1.71387674
  WF centre and spread    2  (  0.000000,  0.000000, -0.027054 )     0.67192944
  WF centre and spread    3  (  0.000000,  0.000000, -0.013926 )     0.68280355
  WF centre and spread    4  ( -0.000000, -0.000000, -0.013926 )     0.68280347
  WF centre and spread    5  (  0.000000, -0.000000, -0.025112 )     0.67239501
  WF centre and spread    6  (  0.000000, -0.000000, -0.025772 )     0.67463607
  WF centre and spread    7  (  1.922893,  1.922893,  2.329600 )     0.29577430
  WF centre and spread    8  (  1.922893,  1.922893,  2.490840 )     0.40585841
  WF centre and spread    9  (  1.922893,  1.922893,  2.383005 )     0.40834561
  WF centre and spread   10  (  1.922893,  1.922893,  2.383005 )     0.40834566
  WF centre and spread   11  (  2.095186,  2.095186,  0.942411 )     0.82356414
  WF centre and spread   12  (  2.123473,  1.722314,  0.536856 )     0.85531787
  WF centre and spread   13  (  1.722314,  2.123473,  0.536856 )     0.85530101
  WF centre and spread   14  (  1.750600,  1.750600,  0.942411 )     0.82356116
  WF centre and spread   15  (  0.165832,  2.166368,  3.020183 )     0.85004294
  WF centre and spread   16  (  0.243203,  1.780480,  2.628061 )     0.80598568
  WF centre and spread   17  ( -0.243203,  2.065306,  2.628061 )     0.80597835
  WF centre and spread   18  ( -0.165832,  1.679418,  3.020183 )     0.85004572
  WF centre and spread   19  (  2.166368,  0.165832,  3.020183 )     0.85004482
  WF centre and spread   20  (  2.065306, -0.243203,  2.628061 )     0.80598830
  WF centre and spread   21  (  1.780480,  0.243203,  2.628061 )     0.80597415
  WF centre and spread   22  (  1.679418, -0.165832,  3.020183 )     0.85004567
  Sum of centres and spreads ( 23.074719, 23.074719, 35.216040 )    16.59861804
 
     28    -0.292E-02     0.0575975052       16.5986180356       0.09  <-- CONV
        O_D=      0.0053420 O_OD=      2.3741628 O_TOT=     16.5986180 <-- SPRD
 Delta: O_D=  0.9533795E-04 O_OD= -0.3012895E-02 O_TOT= -0.2917557E-02 <-- DLTA
 ------------------------------------------------------------------------------
 Cycle:     29
  WF centre and spread    1  ( -0.000000,  0.000000,  0.184094 )     1.71275508
  WF centre and spread    2  (  0.000000,  0.000000, -0.027183 )     0.67277364
  WF centre and spread    3  (  0.000000,  0.000000, -0.013939 )     0.68503950
  WF centre and spread    4  ( -0.000000, -0.000000, -0.013939 )     0.68503942
  WF centre and spread    5  (  0.000000, -0.000000, -0.025507 )     0.67405160
  WF centre and spread    6  (  0.000000, -0.000000, -0.025674 )     0.67621382
  WF centre and spread    7  (  1.922893,  1.922893,  2.319890 )     0.29500343
  WF centre and spread    8  (  1.922893,  1.922893,  2.500581 )     0.40392235
  WF centre and spread    9  (  1.922893,  1.922893,  2.383047 )     0.40804124
[...]
  WF centre and spread   11  (  2.090967,  2.090967,  0.942658 )     0.83149097
  WF centre and spread   12  (  2.127075,  1.718712,  0.536827 )     0.84714986
  WF centre and spread   13  (  1.718711,  2.127075,  0.536827 )     0.84714798
  WF centre and spread   14  (  1.754820,  1.754820,  0.942658 )     0.83148919
  WF centre and spread   15  (  0.082136,  2.207887,  3.029087 )     0.87669883
  WF centre and spread   16  (  0.295389,  1.848708,  2.619592 )     0.76045211
  WF centre and spread   17  ( -0.295389,  1.997078,  2.619592 )     0.76045145
  WF centre and spread   18  ( -0.082135,  1.637900,  3.029087 )     0.87669980
  WF centre and spread   19  (  2.207887,  0.082135,  3.029087 )     0.87670081
  WF centre and spread   20  (  1.997078, -0.295389,  2.619592 )     0.76045328
  WF centre and spread   21  (  1.848709,  0.295389,  2.619592 )     0.76045105
  WF centre and spread   22  (  1.637899, -0.082135,  3.029087 )     0.87670186
  Sum of centres and spreads ( 23.074719, 23.074719, 35.217768 )    16.34373921
 
     93    -0.802E-03     0.0344649178       16.3437392052       0.24  <-- CONV
        O_D=      0.0052454 O_OD=      2.1193806 O_TOT=     16.3437392 <-- SPRD
 Delta: O_D= -0.4328464E-04 O_OD= -0.7590265E-03 O_TOT= -0.8023112E-03 <-- DLTA
 ------------------------------------------------------------------------------
 Cycle:     94
  WF centre and spread    1  ( -0.000000,  0.000000,  0.189533 )     1.70586345
  WF centre and spread    2  ( -0.000000,  0.000000, -0.032789 )     0.67795477
  WF centre and spread    3  (  0.000000,  0.000000, -0.013838 )     0.68056078
  WF centre and spread    4  ( -0.000000, -0.000000, -0.013838 )     0.68056070
  WF centre and spread    5  (  0.000000, -0.000000, -0.024734 )     0.67066471
  WF centre and spread    6  (  0.000000, -0.000000, -0.025966 )     0.67134721
  WF centre and spread    7  (  1.922893,  1.922893,  2.106279 )     0.27224678
  WF centre and spread    8  (  1.922893,  1.922893,  2.713330 )     0.25964318
  WF centre and spread    9  (  1.922893,  1.922893,  2.382987 )     0.40789665
  WF centre and spread   10  (  1.922893,  1.922893,  2.382987 )     0.40789671
  WF centre and spread   11  (  2.090996,  2.090996,  0.942660 )     0.83140615
  WF centre and spread   12  (  2.127094,  1.718693,  0.536821 )     0.84723030
  WF centre and spread   13  (  1.718692,  2.127094,  0.536821 )     0.84722869
  WF centre and spread   14  (  1.754791,  1.754790,  0.942660 )     0.83140462
  WF centre and spread   15  (  0.081256,  2.208119,  3.029132 )     0.87762227
  WF centre and spread   16  (  0.295766,  1.849450,  2.619531 )     0.76014597
  WF centre and spread   17  ( -0.295766,  1.996337,  2.619531 )     0.76014540
  WF centre and spread   18  ( -0.081256,  1.637667,  3.029132 )     0.87762312
  WF centre and spread   19  (  2.208120,  0.081256,  3.029133 )     0.87762430
  WF centre and spread   20  (  1.996336, -0.295766,  2.619531 )     0.76014717
  WF centre and spread   21  (  1.849450,  0.295766,  2.619531 )     0.76014521
  WF centre and spread   22  (  1.637667, -0.081256,  3.029132 )     0.87762526
  Sum of centres and spreads ( 23.074719, 23.074719, 35.217567 )    16.34298341
 
     94    -0.756E-03     0.0307275510       16.3429834091       0.25  <-- CONV
        O_D=      0.0052927 O_OD=      2.1185775 O_TOT=     16.3429834 <-- SPRD
 Delta: O_D=  0.4730150E-04 O_OD= -0.8030976E-03 O_TOT= -0.7557961E-03 <-- DLTA
 ------------------------------------------------------------------------------
 Cycle:     95
  WF centre and spread    1  ( -0.000000,  0.000000,  0.189515 )     1.70561557
  WF centre and spread    2  ( -0.000000,  0.000000, -0.032908 )     0.67784691
  WF centre and spread    3  (  0.000000,  0.000000, -0.013843 )     0.68005616
  WF centre and spread    4  ( -0.000000, -0.000000, -0.013843 )     0.68005608
  WF centre and spread    5  (  0.000000, -0.000000, -0.024646 )     0.67027099
  WF centre and spread    6  (  0.000000, -0.000000, -0.026012 )     0.67083290
  WF centre and spread    7  (  1.922894,  1.922893,  2.106199 )     0.27241145
  WF centre and spread    8  (  1.922893,  1.922893,  2.713407 )     0.25925661
  WF centre and spread    9  (  1.922893,  1.922893,  2.382978 )     0.40786465
  WF centre and spread   10  (  1.922893,  1.922893,  2.382978 )     0.40786470
  WF centre and spread   11  (  2.091020,  2.091021,  0.942658 )     0.83134683
  WF centre and spread   12  (  2.127117,  1.718670,  0.536815 )     0.84729518
  WF centre and spread   13  (  1.718670,  2.127116,  0.536815 )     0.84729401
  WF centre and spread   14  (  1.754766,  1.754766,  0.942658 )     0.83134572
  WF centre and spread   15  (  0.080240,  2.208404,  3.029200 )     0.87844139
  WF centre and spread   16  (  0.296188,  1.850319,  2.619462 )     0.75980402
  WF centre and spread   17  ( -0.296188,  1.995468,  2.619462 )     0.75980360
  WF centre and spread   18  ( -0.080240,  1.637383,  3.029200 )     0.87844203
  WF centre and spread   19  (  2.208404,  0.080240,  3.029200 )     0.87844349
  WF centre and spread   20  (  1.995467, -0.296188,  2.619462 )     0.75980526
  WF centre and spread   21  (  1.850319,  0.296188,  2.619462 )     0.75980376
  WF centre and spread   22  (  1.637382, -0.080240,  3.029200 )     0.87844428
  Sum of centres and spreads ( 23.074719, 23.074719, 35.217418 )    16.34234561
 
     95    -0.638E-03     0.0296291086       16.3423456054       0.25  <-- CONV
        O_D=      0.0052622 O_OD=      2.1179702 O_TOT=     16.3423456 <-- SPRD
 Delta: O_D= -0.3049597E-04 O_OD= -0.6073077E-03 O_TOT= -0.6378037E-03 <-- DLTA
 ------------------------------------------------------------------------------
 Cycle:     96
  WF centre and spread    1  ( -0.000000,  0.000000,  0.189546 )     1.70519514
  WF centre and spread    2  ( -0.000000,  0.000000, -0.032987 )     0.67796445
  WF centre and spread    3  (  0.000000,  0.000000, -0.013862 )     0.67979306
  WF centre and spread    4  ( -0.000000, -0.000000, -0.013862 )     0.67979298
  WF centre and spread    5  (  0.000000, -0.000000, -0.024600 )     0.67006069
  WF centre and spread    6  (  0.000000, -0.000000, -0.026021 )     0.67072875
  WF centre and spread    7  (  1.922894,  1.922893,  2.106118 )     0.27260326
  WF centre and spread    8  (  1.922893,  1.922893,  2.713480 )     0.25890491
  WF centre and spread    9  (  1.922893,  1.922893,  2.382973 )     0.40785408
  WF centre and spread   10  (  1.922893,  1.922893,  2.382973 )     0.40785413
  WF centre and spread   11  (  2.091027,  2.091027,  0.942656 )     0.83134933
  WF centre and spread   12  (  2.127125,  1.718661,  0.536814 )     0.84731833
  WF centre and spread   13  (  1.718661,  2.127125,  0.536814 )     0.84731728
  WF centre and spread   14  (  1.754760,  1.754760,  0.942656 )     0.83134831
  WF centre and spread   15  (  0.079136,  2.208724,  3.029276 )     0.87902006
  WF centre and spread   16  (  0.296631,  1.851279,  2.619390 )     0.75941381
  WF centre and spread   17  ( -0.296631,  1.994507,  2.619390 )     0.75941342
  WF centre and spread   18  ( -0.079136,  1.637063,  3.029276 )     0.87902065
  WF centre and spread   19  (  2.208724,  0.079135,  3.029276 )     0.87902220
  WF centre and spread   20  (  1.994507, -0.296631,  2.619390 )     0.75941506
  WF centre and spread   21  (  1.851280,  0.296631,  2.619390 )     0.75941367
  WF centre and spread   22  (  1.637062, -0.079136,  3.029276 )     0.87902295
  Sum of centres and spreads ( 23.074719, 23.074719, 35.217361 )    16.34182653
 
     96    -0.519E-03     0.0263049214       16.3418265261       0.25  <-- CONV
        O_D=      0.0052917 O_OD=      2.1174217 O_TOT=     16.3418265 <-- SPRD
 Delta: O_D=  0.2943054E-04 O_OD= -0.5485099E-03 O_TOT= -0.5190793E-03 <-- DLTA
 ------------------------------------------------------------------------------
 Cycle:     97
  WF centre and spread    1  ( -0.000000,  0.000000,  0.189576 )     1.70506990
  WF centre and spread    2  ( -0.000000,  0.000000, -0.032974 )     0.67806988
  WF centre and spread    3  (  0.000000,  0.000000, -0.013867 )     0.67988783
  WF centre and spread    4  ( -0.000000, -0.000000, -0.013867 )     0.67988775
  WF centre and spread    5  (  0.000000, -0.000000, -0.024617 )     0.67013287
  WF centre and spread    6  (  0.000000, -0.000000, -0.026004 )     0.67090260
  WF centre and spread    7  (  1.922894,  1.922893,  2.106110 )     0.27262775
  WF centre and spread    8  (  1.922893,  1.922893,  2.713485 )     0.25888854
  WF centre and spread    9  (  1.922893,  1.922893,  2.382975 )     0.40786127
  WF centre and spread   10  (  1.922893,  1.922893,  2.382975 )     0.40786132
  WF centre and spread   11  (  2.091018,  2.091018,  0.942655 )     0.83134119
  WF centre and spread   12  (  2.127118,  1.718669,  0.536818 )     0.84726339
  WF centre and spread   13  (  1.718668,  2.127118,  0.536818 )     0.84726232
  WF centre and spread   14  (  1.754769,  1.754769,  0.942656 )     0.83134016
  WF centre and spread   15  (  0.078989,  2.208773,  3.029284 )     0.87891331
  WF centre and spread   16  (  0.296685,  1.851413,  2.619380 )     0.75931977
  WF centre and spread   17  ( -0.296686,  1.994374,  2.619381 )     0.75931939
  WF centre and spread   18  ( -0.078989,  1.637013,  3.029284 )     0.87891390
  WF centre and spread   19  (  2.208774,  0.078989,  3.029285 )     0.87891544
  WF centre and spread   20  (  1.994373, -0.296686,  2.619380 )     0.75932102
  WF centre and spread   21  (  1.851413,  0.296686,  2.619381 )     0.75931963
  WF centre and spread   22  (  1.637013, -0.078989,  3.029284 )     0.87891620
  Sum of centres and spreads ( 23.074719, 23.074719, 35.217396 )    16.34133545
 
     97    -0.491E-03     0.0348703490       16.3413354456       0.25  <-- CONV
        O_D=      0.0052635 O_OD=      2.1169587 O_TOT=     16.3413354 <-- SPRD
 Delta: O_D= -0.2812747E-04 O_OD= -0.4629530E-03 O_TOT= -0.4910805E-03 <-- DLTA
 ------------------------------------------------------------------------------
 Cycle:     98
  WF centre and spread    1  ( -0.000000,  0.000000,  0.189678 )     1.70475940
  WF centre and spread    2  ( -0.000000,  0.000000, -0.032938 )     0.67843186
  WF centre and spread    3  (  0.000000,  0.000000, -0.013885 )     0.68021840
  WF centre and spread    4  ( -0.000000, -0.000000, -0.013885 )     0.68021832
  WF centre and spread    5  (  0.000000, -0.000000, -0.024674 )     0.67038226
  WF centre and spread    6  (  0.000000, -0.000000, -0.025953 )     0.67147605
  WF centre and spread    7  (  1.922894,  1.922893,  2.106081 )     0.27272467
  WF centre and spread    8  (  1.922893,  1.922893,  2.713503 )     0.25883578
  WF centre and spread    9  (  1.922893,  1.922893,  2.382980 )     0.40788656
  WF centre and spread   10  (  1.922893,  1.922893,  2.382980 )     0.40788662
  WF centre and spread   11  (  2.090989,  2.090990,  0.942655 )     0.83139791
  WF centre and spread   12  (  2.127101,  1.718686,  0.536829 )     0.84717178
  WF centre and spread   13  (  1.718685,  2.127101,  0.536829 )     0.84717047
  WF centre and spread   14  (  1.754797,  1.754797,  0.942655 )     0.83139661
  WF centre and spread   15  (  0.078490,  2.208941,  3.029319 )     0.87860965
  WF centre and spread   16  (  0.296871,  1.851868,  2.619351 )     0.75908915
  WF centre and spread   17  ( -0.296871,  1.993918,  2.619351 )     0.75908869
  WF centre and spread   18  ( -0.078490,  1.636846,  3.029319 )     0.87861037
  WF centre and spread   19  (  2.208941,  0.078489,  3.029320 )     0.87861177
  WF centre and spread   20  (  1.993918, -0.296871,  2.619351 )     0.75909039
  WF centre and spread   21  (  1.851869,  0.296871,  2.619351 )     0.75908871
  WF centre and spread   22  (  1.636846, -0.078490,  3.029319 )     0.87861265
  Sum of centres and spreads ( 23.074719, 23.074719, 35.217536 )    16.34075807
 
     98    -0.577E-03     0.0253273959       16.3407580698       0.26  <-- CONV
        O_D=      0.0052919 O_OD=      2.1163530 O_TOT=     16.3407581 <-- SPRD
 Delta: O_D=  0.2837344E-04 O_OD= -0.6057493E-03 O_TOT= -0.5773758E-03 <-- DLTA
 ------------------------------------------------------------------------------
 Cycle:     99
  WF centre and spread    1  ( -0.000000,  0.000000,  0.189831 )     1.70421312
  WF centre and spread    2  ( -0.000000,  0.000000, -0.032900 )     0.67900374
  WF centre and spread    3  (  0.000000,  0.000000, -0.013915 )     0.68073358
  WF centre and spread    4  ( -0.000000, -0.000000, -0.013915 )     0.68073350
  WF centre and spread    5  (  0.000000, -0.000000, -0.024762 )     0.67076785
  WF centre and spread    6  (  0.000000, -0.000000, -0.025879 )     0.67236542
  WF centre and spread    7  (  1.922894,  1.922893,  2.106034 )     0.27288986
  WF centre and spread    8  (  1.922893,  1.922893,  2.713533 )     0.25872613
  WF centre and spread    9  (  1.922893,  1.922893,  2.382987 )     0.40789988
  WF centre and spread   10  (  1.922893,  1.922893,  2.382987 )     0.40789994
  WF centre and spread   11  (  2.090955,  2.090956,  0.942652 )     0.83149425
  WF centre and spread   12  (  2.127091,  1.718696,  0.536841 )     0.84707135
  WF centre and spread   13  (  1.718695,  2.127091,  0.536841 )     0.84706998
  WF centre and spread   14  (  1.754831,  1.754831,  0.942652 )     0.83149289
  WF centre and spread   15  (  0.077611,  2.209231,  3.029392 )     0.87818414
  WF centre and spread   16  (  0.297198,  1.852664,  2.619298 )     0.75874852
  WF centre and spread   17  ( -0.297198,  1.993123,  2.619298 )     0.75874804
  WF centre and spread   18  ( -0.077611,  1.636555,  3.029392 )     0.87818489
  WF centre and spread   19  (  2.209232,  0.077610,  3.029392 )     0.87818626
  WF centre and spread   20  (  1.993122, -0.297198,  2.619298 )     0.75874976
  WF centre and spread   21  (  1.852664,  0.297199,  2.619298 )     0.75874803
  WF centre and spread   22  (  1.636555, -0.077611,  3.029392 )     0.87818718
  Sum of centres and spreads ( 23.074719, 23.074719, 35.217747 )    16.34009831
 
     99    -0.660E-03     0.0279765150       16.3400983073       0.26  <-- CONV
        O_D=      0.0052481 O_OD=      2.1157370 O_TOT=     16.3400983 <-- SPRD
 Delta: O_D= -0.4379367E-04 O_OD= -0.6159688E-03 O_TOT= -0.6597625E-03 <-- DLTA
 ------------------------------------------------------------------------------
 Cycle:    100
  WF centre and spread    1  ( -0.000000,  0.000000,  0.189957 )     1.70352147
  WF centre and spread    2  ( -0.000000,  0.000000, -0.032888 )     0.67960705
  WF centre and spread    3  (  0.000000,  0.000000, -0.013944 )     0.68125647
  WF centre and spread    4  ( -0.000000, -0.000000, -0.013944 )     0.68125639
  WF centre and spread    5  (  0.000000, -0.000000, -0.024852 )     0.67115646
  WF centre and spread    6  (  0.000000, -0.000000, -0.025810 )     0.67324081
  WF centre and spread    7  (  1.922894,  1.922893,  2.105975 )     0.27310250
  WF centre and spread    8  (  1.922893,  1.922893,  2.713571 )     0.25854023
  WF centre and spread    9  (  1.922893,  1.922893,  2.382996 )     0.40786752
  WF centre and spread   10  (  1.922893,  1.922893,  2.382996 )     0.40786758
  WF centre and spread   11  (  2.090938,  2.090938,  0.942638 )     0.83160189
  WF centre and spread   12  (  2.127100,  1.718686,  0.536843 )     0.84700411
  WF centre and spread   13  (  1.718686,  2.127100,  0.536843 )     0.84700243
  WF centre and spread   14  (  1.754849,  1.754849,  0.942639 )     0.83160017
  WF centre and spread   15  (  0.076412,  2.209617,  3.029498 )     0.87784084
  WF centre and spread   16  (  0.297651,  1.853734,  2.619214 )     0.75835837
  WF centre and spread   17  ( -0.297651,  1.992053,  2.619214 )     0.75835779
  WF centre and spread   18  ( -0.076412,  1.636169,  3.029497 )     0.87784174
  WF centre and spread   19  (  2.209618,  0.076411,  3.029498 )     0.87784295
  WF centre and spread   20  (  1.992052, -0.297651,  2.619214 )     0.75835959
  WF centre and spread   21  (  1.853734,  0.297651,  2.619214 )     0.75835752
  WF centre and spread   22  (  1.636169, -0.076412,  3.029498 )     0.87784404
  Sum of centres and spreads ( 23.074719, 23.074719, 35.217867 )    16.33942793
 
    100    -0.670E-03     0.0283940229       16.3394279298       0.26  <-- CONV
        O_D=      0.0052832 O_OD=      2.1150316 O_TOT=     16.3394279 <-- SPRD
 Delta: O_D=  0.3506006E-04 O_OD= -0.7054376E-03 O_TOT= -0.6703775E-03 <-- DLTA
 ------------------------------------------------------------------------------

 Writing checkpoint file PbTiO3.chk... done

 Final State
  WF centre and spread    1  ( -0.000000,  0.000000,  0.189957 )     1.70352147
  WF centre and spread    2  ( -0.000000,  0.000000, -0.032888 )     0.67960705
  WF centre and spread    3  (  0.000000,  0.000000, -0.013944 )     0.68125647
  WF centre and spread    4  ( -0.000000, -0.000000, -0.013944 )     0.68125639
  WF centre and spread    5  (  0.000000, -0.000000, -0.024852 )     0.67115646
  WF centre and spread    6  (  0.000000, -0.000000, -0.025810 )     0.67324081
  WF centre and spread    7  (  1.922894,  1.922893,  2.105975 )     0.27310250
  WF centre and spread    8  (  1.922893,  1.922893,  2.713571 )     0.25854023
  WF centre and spread    9  (  1.922893,  1.922893,  2.382996 )     0.40786752
  WF centre and spread   10  (  1.922893,  1.922893,  2.382996 )     0.40786758
  WF centre and spread   11  (  2.090938,  2.090938,  0.942638 )     0.83160189
  WF centre and spread   12  (  2.127100,  1.718686,  0.536843 )     0.84700411
  WF centre and spread   13  (  1.718686,  2.127100,  0.536843 )     0.84700243
  WF centre and spread   14  (  1.754849,  1.754849,  0.942639 )     0.83160017
  WF centre and spread   15  (  0.076412,  2.209617,  3.029498 )     0.87784084
  WF centre and spread   16  (  0.297651,  1.853734,  2.619214 )     0.75835837
  WF centre and spread   17  ( -0.297651,  1.992053,  2.619214 )     0.75835779
  WF centre and spread   18  ( -0.076412,  1.636169,  3.029497 )     0.87784174
  WF centre and spread   19  (  2.209618,  0.076411,  3.029498 )     0.87784295
  WF centre and spread   20  (  1.992052, -0.297651,  2.619214 )     0.75835959
  WF centre and spread   21  (  1.853734,  0.297651,  2.619214 )     0.75835752
  WF centre and spread   22  (  1.636169, -0.076412,  3.029498 )     0.87784404
  Sum of centres and spreads ( 23.074719, 23.074719, 35.217867 )    16.33942793
 
         Spreads (Ang^2)       Omega I      =    14.219113186
        ================       Omega D      =     0.005283170
                               Omega OD     =     2.115031573
    Final Spread (Ang^2)       Omega Total  =    16.339427930
 ------------------------------------------------------------------------------

 Wannier centres written to file PbTiO3_centres.xyz
 Time for wannierise            0.272 (sec)

 Writing checkpoint file PbTiO3.chk... done

 Time for plotting              0.000 (sec)
 Total Execution Time           0.984 (sec)

 *===========================================================================*
 |                             TIMING INFORMATION                            |
 *===========================================================================*
 |    Tag                                                Ncalls      Time (s)|
 |---------------------------------------------------------------------------|
 |kmesh: get                                        :         1         0.042|
 |overlap: allocate                                 :         1         0.001|
 |overlap: read                                     :         1         0.655|
 |wann: main                                        :         1         0.272|
 |plot: main                                        :         1         0.000|
 *---------------------------------------------------------------------------*
 
 All done: wannier90 exiting
