
     Program PW2WANNIER v.6.7MaX starts on  8Sep2021 at  3:27:40 

     This program is part of the open-source Quantum ESPRESSO suite
     for quantum simulation of materials; please cite
         "P. Giannozzi et al., J. Phys.:Condens. Matter 21 395502 (2009);
         "P. Giannozzi et al., J. Phys.:Condens. Matter 29 465901 (2017);
          URL http://www.quantum-espresso.org", 
     in publications or presentations arising from this work. More details at
     http://www.quantum-espresso.org/quote

     Parallel version (MPI), running on    80 processors

     MPI processes distributed on     8 nodes
     R & G space division:  proc/nbgrp/npool/nimage =      80
 
  Reading nscf_save data

     Reading xml data from directory:

     pwscf/pbtio3.save/
     Message from routine read_pp_mesh:
     mesh size missing, using the one in header
     Message from routine read_pp_mesh:
     mesh size missing, using the one in header
     Message from routine read_pp_mesh:
     mesh size missing, using the one in header

     IMPORTANT: XC functional enforced from input :
     Exchange-correlation= SCAN
                           (   0   0   0   0   0 263 267)
     Any further DFT definition will be discarded
     Please, verify this is what you really want

 
     Parallelization info
     --------------------
     sticks:   dense  smooth     PW     G-vecs:    dense   smooth      PW
     Min          31      31      9                 1357     1357     217
     Max          32      32     10                 1364     1364     222
     Sum        2537    2537    749               108817   108817   17591
 
     Reading meta-gga kinetic term
     Reading collected, re-writing distributed wavefunctions
 
  Spin CASE ( default = unpolarized )
 
  Wannier mode is: standalone     
 
  -----------------
  *** Reading nnkp 
  -----------------
 
  Checking info from wannier.nnkp file
 
  - Real lattice is ok
  - Reciprocal lattice is ok
  - K-points are ok
  - Number of wannier functions is ok ( 22)
  - All guiding functions are given 
 
 Projections:
    0.000000    0.000000   -0.006282  0  1  1    1.000000
    0.000000    0.000000   -0.006282  2  1  1    1.000000
    0.000000    0.000000   -0.006282  2  2  1    1.000000
    0.000000    0.000000   -0.006282  2  3  1    1.000000
    0.000000    0.000000   -0.006282  2  4  1    1.000000
    0.000000    0.000000   -0.006282  2  5  1    1.000000
    0.500000    0.500000    0.620535  0  1  1    1.000000
    0.500000    0.500000    0.620535  1  1  1    1.000000
    0.500000    0.500000    0.620535  1  2  1    1.000000
    0.500000    0.500000    0.620535  1  3  1    1.000000
    0.500000    0.500000    0.165765 -3  1  1    1.000000
    0.500000    0.500000    0.165765 -3  2  1    1.000000
    0.500000    0.500000    0.165765 -3  3  1    1.000000
    0.500000    0.500000    0.165765 -3  4  1    1.000000
    0.000000    0.500000    0.732251 -3  1  1    1.000000
    0.000000    0.500000    0.732251 -3  2  1    1.000000
    0.000000    0.500000    0.732251 -3  3  1    1.000000
    0.000000    0.500000    0.732251 -3  4  1    1.000000
    0.500000    0.000000    0.732251 -3  1  1    1.000000
    0.500000    0.000000    0.732251 -3  2  1    1.000000
    0.500000    0.000000    0.732251 -3  3  1    1.000000
    0.500000    0.000000    0.732251 -3  4  1    1.000000
 
  Reading data about k-point neighbours 
 
  All neighbours are found 
 
  Opening pp-files 
 
 
  --------------------------
  *** Compute  A projections
  --------------------------
 
  AMN: iknum =       64
       1       2       3       4       5       6       7       8       9      10
      11      12      13      14      15      16      17      18      19      20
      21      22      23      24      25      26      27      28      29      30
      31      32      33      34      35      36      37      38      39      40
      41      42      43      44      45      46      47      48      49      50
      51      52      53      54      55      56      57      58      59      60
      61      62      63      64

  AMN calculated
 
  ---------------
  *** Compute  M 
  ---------------
 
  MMN: iknum =       64
       1       2       3       4       5       6       7       8       9      10
      11      12      13      14      15      16      17      18      19      20
      21      22      23      24      25      26      27      28      29      30
      31      32      33      34      35      36      37      38      39      40
      41      42      43      44      45      46      47      48      49      50
      51      52      53      54      55      56      57      58      59      60
      61      62      63      64

  MMN calculated
 
  -----------------------------------
  *** Orbital terms are not computed 
  -----------------------------------
 
  ----------------
  *** Write bands 
  ----------------
 
 
  -----------------------------
  *** Plot info is not printed 
  -----------------------------
 
  -----------------------------
  *** Parity info is not printed 
  -----------------------------
 
  ------------
  *** Stop pp 
  ------------
 
 
     init_pw2wan  :      0.95s CPU      1.39s WALL (       1 calls)
     compute_amn  :      3.32s CPU      3.48s WALL (       1 calls)
     compute_mmn  :      0.83s CPU      1.35s WALL (       1 calls)
 
     PW2WANNIER   :      5.11s CPU      6.37s WALL

 
   This run was terminated on:   3:27:47   8Sep2021            

=------------------------------------------------------------------------------=
   JOB DONE.
=------------------------------------------------------------------------------=
 
