
     Program PWSCF v.6.7MaX starts on  8Sep2021 at  3:25: 3 

     This program is part of the open-source Quantum ESPRESSO suite
     for quantum simulation of materials; please cite
         "P. Giannozzi et al., J. Phys.:Condens. Matter 21 395502 (2009);
         "P. Giannozzi et al., J. Phys.:Condens. Matter 29 465901 (2017);
          URL http://www.quantum-espresso.org", 
     in publications or presentations arising from this work. More details at
     http://www.quantum-espresso.org/quote

     Parallel version (MPI), running on    80 processors

     MPI processes distributed on     8 nodes
     R & G space division:  proc/nbgrp/npool/nimage =      80
     Reading input from PbTiO3.scf

     Current dimensions of program PWSCF are:
     Max number of different atomic species (ntypx) = 10
     Max number of k-points (npk) =  40000
     Max angular momentum in pseudopotentials (lmaxx) =  3
     Message from routine read_pp_mesh:
     mesh size missing, using the one in header
     Message from routine read_pp_mesh:
     mesh size missing, using the one in header
     Message from routine read_pp_mesh:
     mesh size missing, using the one in header

     IMPORTANT: XC functional enforced from input :
     Exchange-correlation= SCAN
                           (   0   0   0   0   0 263 267)
     Any further DFT definition will be discarded
     Please, verify this is what you really want


     Subspace diagonalization in iterative solution of the eigenvalue problem:
     a serial algorithm will be used

 
     Parallelization info
     --------------------
     sticks:   dense  smooth     PW     G-vecs:    dense   smooth      PW
     Min          31      31      9                 1357     1357     217
     Max          32      32     10                 1364     1364     222
     Sum        2537    2537    749               108817   108817   17591
 


     bravais-lattice index     =            0
     lattice parameter (alat)  =       7.2675  a.u.
     unit-cell volume          =     438.4162 (a.u.)^3
     number of atoms/cell      =            5
     number of atomic types    =            3
     number of electrons       =        44.00
     number of Kohn-Sham states=           22
     kinetic-energy cutoff     =     150.0000  Ry
     charge density cutoff     =     600.0000  Ry
     scf convergence threshold =      1.0E-08
     mixing beta               =       0.7000
     number of iterations used =            8  plain     mixing
     Exchange-correlation= SCAN
                           (   0   0   0   0   0 263 267)

     celldm(1)=   7.267483  celldm(2)=   0.000000  celldm(3)=   0.000000
     celldm(4)=   0.000000  celldm(5)=   0.000000  celldm(6)=   0.000000

     crystal axes: (cart. coord. in units of alat)
               a(1) = (   1.000000   0.000000   0.000000 )  
               a(2) = (   0.000000   1.000000   0.000000 )  
               a(3) = (   0.000000   0.000000   1.142180 )  

     reciprocal axes: (cart. coord. in units 2 pi/alat)
               b(1) = (  1.000000  0.000000  0.000000 )  
               b(2) = (  0.000000  1.000000  0.000000 )  
               b(3) = (  0.000000  0.000000  0.875519 )  


     PseudoPot. # 1 for O  read from file:
     /home/pinchenx/data.gpfs/softwares/QuantumEspresso/q-e-qe-6.4.1/pseudo/O_ONCV_PBE-1.2.upf
     MD5 check sum: e36c48deb68f4e355fffe4602be2c42c
     Pseudo is Norm-conserving, Zval =  6.0
     Generated using ONCVPSP code by D. R. Hamann
     Using radial grid of  602 points,  4 beta functions with: 
                l(1) =   0
                l(2) =   0
                l(3) =   1
                l(4) =   1

     PseudoPot. # 2 for Ti read from file:
     /home/pinchenx/data.gpfs/softwares/QuantumEspresso/q-e-qe-6.4.1/pseudo/Ti_ONCV_PBE-1.2.upf
     MD5 check sum: 1aea57736bd12dcfee93c97d0b9b5968
     Pseudo is Norm-conserving, Zval = 12.0
     Generated using ONCVPSP code by D. R. Hamann
     Using radial grid of  602 points,  6 beta functions with: 
                l(1) =   0
                l(2) =   0
                l(3) =   1
                l(4) =   1
                l(5) =   2
                l(6) =   2

     PseudoPot. # 3 for Pb read from file:
     /home/pinchenx/data.gpfs/softwares/QuantumEspresso/q-e-qe-6.4.1/pseudo/Pb_ONCV_PBE-1.2.upf
     MD5 check sum: 7f27c247474026287e0dbe0f3167d60b
     Pseudo is Norm-conserving, Zval = 14.0
     Generated using ONCVPSP code by D. R. Hamann
     Using radial grid of  602 points,  8 beta functions with: 
                l(1) =   0
                l(2) =   0
                l(3) =   1
                l(4) =   1
                l(5) =   2
                l(6) =   2
                l(7) =   3
                l(8) =   3

     atomic species   valence    mass     pseudopotential
        O              6.00    15.99900     O ( 1.00)
        Ti            12.00    47.86700     Ti( 1.00)
        Pb            14.00   207.20000     Pb( 1.00)

     No symmetry found



   Cartesian axes

     site n.     atom                  positions (alat units)
         1           Pb  tau(   1) = (   0.0000000   0.0000000  -0.0062823  )
         2           Ti  tau(   2) = (   0.5000000   0.5000000   0.6205353  )
         3           O   tau(   3) = (   0.5000000   0.5000000   0.1657688  )
         4           O   tau(   4) = (   0.0000000   0.5000000   0.7322471  )
         5           O   tau(   5) = (   0.5000000   0.0000000   0.7322471  )

     number of k points=    64
                       cart. coord. in units 2pi/alat
        k(    1) = (   0.0000000   0.0000000   0.0000000), wk =   0.0312500
        k(    2) = (   0.0000000   0.0000000   0.2188797), wk =   0.0312500
        k(    3) = (   0.0000000   0.0000000   0.4377595), wk =   0.0312500
        k(    4) = (   0.0000000   0.0000000   0.6566392), wk =   0.0312500
        k(    5) = (   0.0000000   0.2500000   0.0000000), wk =   0.0312500
        k(    6) = (   0.0000000   0.2500000   0.2188797), wk =   0.0312500
        k(    7) = (   0.0000000   0.2500000   0.4377595), wk =   0.0312500
        k(    8) = (   0.0000000   0.2500000   0.6566392), wk =   0.0312500
        k(    9) = (   0.0000000   0.5000000   0.0000000), wk =   0.0312500
        k(   10) = (   0.0000000   0.5000000   0.2188797), wk =   0.0312500
        k(   11) = (   0.0000000   0.5000000   0.4377595), wk =   0.0312500
        k(   12) = (   0.0000000   0.5000000   0.6566392), wk =   0.0312500
        k(   13) = (   0.0000000   0.7500000   0.0000000), wk =   0.0312500
        k(   14) = (   0.0000000   0.7500000   0.2188797), wk =   0.0312500
        k(   15) = (   0.0000000   0.7500000   0.4377595), wk =   0.0312500
        k(   16) = (   0.0000000   0.7500000   0.6566392), wk =   0.0312500
        k(   17) = (   0.2500000   0.0000000   0.0000000), wk =   0.0312500
        k(   18) = (   0.2500000   0.0000000   0.2188797), wk =   0.0312500
        k(   19) = (   0.2500000   0.0000000   0.4377595), wk =   0.0312500
        k(   20) = (   0.2500000   0.0000000   0.6566392), wk =   0.0312500
        k(   21) = (   0.2500000   0.2500000   0.0000000), wk =   0.0312500
        k(   22) = (   0.2500000   0.2500000   0.2188797), wk =   0.0312500
        k(   23) = (   0.2500000   0.2500000   0.4377595), wk =   0.0312500
        k(   24) = (   0.2500000   0.2500000   0.6566392), wk =   0.0312500
        k(   25) = (   0.2500000   0.5000000   0.0000000), wk =   0.0312500
        k(   26) = (   0.2500000   0.5000000   0.2188797), wk =   0.0312500
        k(   27) = (   0.2500000   0.5000000   0.4377595), wk =   0.0312500
        k(   28) = (   0.2500000   0.5000000   0.6566392), wk =   0.0312500
        k(   29) = (   0.2500000   0.7500000   0.0000000), wk =   0.0312500
        k(   30) = (   0.2500000   0.7500000   0.2188797), wk =   0.0312500
        k(   31) = (   0.2500000   0.7500000   0.4377595), wk =   0.0312500
        k(   32) = (   0.2500000   0.7500000   0.6566392), wk =   0.0312500
        k(   33) = (   0.5000000   0.0000000   0.0000000), wk =   0.0312500
        k(   34) = (   0.5000000   0.0000000   0.2188797), wk =   0.0312500
        k(   35) = (   0.5000000   0.0000000   0.4377595), wk =   0.0312500
        k(   36) = (   0.5000000   0.0000000   0.6566392), wk =   0.0312500
        k(   37) = (   0.5000000   0.2500000   0.0000000), wk =   0.0312500
        k(   38) = (   0.5000000   0.2500000   0.2188797), wk =   0.0312500
        k(   39) = (   0.5000000   0.2500000   0.4377595), wk =   0.0312500
        k(   40) = (   0.5000000   0.2500000   0.6566392), wk =   0.0312500
        k(   41) = (   0.5000000   0.5000000   0.0000000), wk =   0.0312500
        k(   42) = (   0.5000000   0.5000000   0.2188797), wk =   0.0312500
        k(   43) = (   0.5000000   0.5000000   0.4377595), wk =   0.0312500
        k(   44) = (   0.5000000   0.5000000   0.6566392), wk =   0.0312500
        k(   45) = (   0.5000000   0.7500000   0.0000000), wk =   0.0312500
        k(   46) = (   0.5000000   0.7500000   0.2188797), wk =   0.0312500
        k(   47) = (   0.5000000   0.7500000   0.4377595), wk =   0.0312500
        k(   48) = (   0.5000000   0.7500000   0.6566392), wk =   0.0312500
        k(   49) = (   0.7500000   0.0000000   0.0000000), wk =   0.0312500
        k(   50) = (   0.7500000   0.0000000   0.2188797), wk =   0.0312500
        k(   51) = (   0.7500000   0.0000000   0.4377595), wk =   0.0312500
        k(   52) = (   0.7500000   0.0000000   0.6566392), wk =   0.0312500
        k(   53) = (   0.7500000   0.2500000   0.0000000), wk =   0.0312500
        k(   54) = (   0.7500000   0.2500000   0.2188797), wk =   0.0312500
        k(   55) = (   0.7500000   0.2500000   0.4377595), wk =   0.0312500
        k(   56) = (   0.7500000   0.2500000   0.6566392), wk =   0.0312500
        k(   57) = (   0.7500000   0.5000000   0.0000000), wk =   0.0312500
        k(   58) = (   0.7500000   0.5000000   0.2188797), wk =   0.0312500
        k(   59) = (   0.7500000   0.5000000   0.4377595), wk =   0.0312500
        k(   60) = (   0.7500000   0.5000000   0.6566392), wk =   0.0312500
        k(   61) = (   0.7500000   0.7500000   0.0000000), wk =   0.0312500
        k(   62) = (   0.7500000   0.7500000   0.2188797), wk =   0.0312500
        k(   63) = (   0.7500000   0.7500000   0.4377595), wk =   0.0312500
        k(   64) = (   0.7500000   0.7500000   0.6566392), wk =   0.0312500

     Dense  grid:   108817 G-vectors     FFT dimensions: (  60,  60,  72)

     Estimated max dynamical RAM per process >      19.84 MB

     Estimated total dynamical RAM >       1.55 GB

     Initial potential from superposition of free atoms

     starting charge   43.78536, renormalised to   44.00000
     Starting wfcs are random

     total cpu time spent up to now is        2.2 secs

     Self-consistent Calculation

     iteration #  1     ecut=   150.00 Ry     beta= 0.70
     Davidson diagonalization with overlap
     ethr =  1.00E-02,  avg # of iterations = 10.8

     total cpu time spent up to now is       13.5 secs

     total energy              =    -323.30508260 Ry
     estimated scf accuracy    <      66.66584809 Ry

     iteration #  2     ecut=   150.00 Ry     beta= 0.70
     Davidson diagonalization with overlap
     ethr =  1.00E-02,  avg # of iterations =  4.6

     total cpu time spent up to now is       17.5 secs

     total energy              =    -323.28644550 Ry
     estimated scf accuracy    <       8.30882799 Ry

     iteration #  3     ecut=   150.00 Ry     beta= 0.70
     Davidson diagonalization with overlap
     ethr =  1.00E-02,  avg # of iterations =  3.8

     total cpu time spent up to now is       21.5 secs

     total energy              =    -323.90173785 Ry
     estimated scf accuracy    <       9.54195325 Ry

     iteration #  4     ecut=   150.00 Ry     beta= 0.70
     Davidson diagonalization with overlap
     ethr =  1.00E-02,  avg # of iterations =  1.6

     total cpu time spent up to now is       24.7 secs

     total energy              =    -323.96929841 Ry
     estimated scf accuracy    <       0.85706139 Ry

     iteration #  5     ecut=   150.00 Ry     beta= 0.70
     Davidson diagonalization with overlap
     ethr =  1.95E-03,  avg # of iterations =  2.3

     total cpu time spent up to now is       27.9 secs

     total energy              =    -324.01049500 Ry
     estimated scf accuracy    <       0.05676616 Ry

     iteration #  6     ecut=   150.00 Ry     beta= 0.70
     Davidson diagonalization with overlap
     ethr =  1.29E-04,  avg # of iterations =  6.0

     total cpu time spent up to now is       33.1 secs

     total energy              =    -324.04105642 Ry
     estimated scf accuracy    <       0.38478455 Ry

     iteration #  7     ecut=   150.00 Ry     beta= 0.70
     Davidson diagonalization with overlap
     ethr =  1.29E-04,  avg # of iterations =  2.4

     total cpu time spent up to now is       36.3 secs

     total energy              =    -324.03405881 Ry
     estimated scf accuracy    <       0.17745766 Ry

     iteration #  8     ecut=   150.00 Ry     beta= 0.70
     Davidson diagonalization with overlap
     ethr =  1.29E-04,  avg # of iterations =  4.4

     total cpu time spent up to now is       40.2 secs

     total energy              =    -324.04282205 Ry
     estimated scf accuracy    <       0.00368527 Ry

     iteration #  9     ecut=   150.00 Ry     beta= 0.70
     Davidson diagonalization with overlap
     ethr =  8.38E-06,  avg # of iterations =  5.1

     total cpu time spent up to now is       44.9 secs

     total energy              =    -324.04313333 Ry
     estimated scf accuracy    <       0.03741080 Ry

     iteration # 10     ecut=   150.00 Ry     beta= 0.70
     Davidson diagonalization with overlap
     ethr =  8.38E-06,  avg # of iterations =  2.2

     total cpu time spent up to now is       48.2 secs

     total energy              =    -324.04243549 Ry
     estimated scf accuracy    <       0.01805643 Ry

     iteration # 11     ecut=   150.00 Ry     beta= 0.70
     Davidson diagonalization with overlap
     ethr =  8.38E-06,  avg # of iterations =  4.9

     total cpu time spent up to now is       52.3 secs

     total energy              =    -324.04305027 Ry
     estimated scf accuracy    <       0.00038889 Ry

     iteration # 12     ecut=   150.00 Ry     beta= 0.70
     Davidson diagonalization with overlap
     ethr =  8.84E-07,  avg # of iterations =  4.8

     total cpu time spent up to now is       56.3 secs

     total energy              =    -324.04313409 Ry
     estimated scf accuracy    <       0.00004140 Ry

     iteration # 13     ecut=   150.00 Ry     beta= 0.70
     Davidson diagonalization with overlap
     ethr =  9.41E-08,  avg # of iterations =  2.5

     total cpu time spent up to now is       59.7 secs

     total energy              =    -324.04313757 Ry
     estimated scf accuracy    <       0.00000165 Ry

     iteration # 14     ecut=   150.00 Ry     beta= 0.70
     Davidson diagonalization with overlap
     ethr =  3.75E-09,  avg # of iterations =  6.4

     total cpu time spent up to now is       65.3 secs

     total energy              =    -324.04313811 Ry
     estimated scf accuracy    <       0.00004231 Ry

     iteration # 15     ecut=   150.00 Ry     beta= 0.70
     Davidson diagonalization with overlap
     ethr =  3.75E-09,  avg # of iterations =  4.9

     total cpu time spent up to now is       70.0 secs

     total energy              =    -324.04313815 Ry
     estimated scf accuracy    <       0.00000897 Ry

     iteration # 16     ecut=   150.00 Ry     beta= 0.70
     Davidson diagonalization with overlap
     ethr =  3.75E-09,  avg # of iterations =  5.0

     total cpu time spent up to now is       74.1 secs

     total energy              =    -324.04313851 Ry
     estimated scf accuracy    <       0.00000005 Ry

     iteration # 17     ecut=   150.00 Ry     beta= 0.70
     Davidson diagonalization with overlap
     ethr =  1.16E-10,  avg # of iterations =  5.0

     total cpu time spent up to now is       78.8 secs

     total energy              =    -324.04313852 Ry
     estimated scf accuracy    <       0.00000019 Ry

     iteration # 18     ecut=   150.00 Ry     beta= 0.70
     Davidson diagonalization with overlap
     ethr =  1.16E-10,  avg # of iterations =  2.9

     total cpu time spent up to now is       82.1 secs

     total energy              =    -324.04313852 Ry
     estimated scf accuracy    <       0.00000005 Ry

     iteration # 19     ecut=   150.00 Ry     beta= 0.70
     Davidson diagonalization with overlap
     ethr =  1.08E-10,  avg # of iterations =  1.2

     total cpu time spent up to now is       85.2 secs

     total energy              =    -324.04313852 Ry
     estimated scf accuracy    <       0.00000001 Ry

     iteration # 20     ecut=   150.00 Ry     beta= 0.70
     Davidson diagonalization with overlap
     ethr =  2.49E-11,  avg # of iterations =  4.8

     total cpu time spent up to now is       89.5 secs

     End of self-consistent calculation

          k = 0.0000 0.0000 0.0000 ( 13625 PWs)   bands (ev):

   -49.2547 -24.3960 -24.2129 -24.2129  -9.1038  -8.0542  -7.7012  -4.6812
    -4.6812  -4.6237  -4.5903  -4.5686   3.7203   6.2666   6.2666   7.0018
     7.7468   7.7468   8.0459   8.1792   8.9230   8.9230

          k = 0.0000 0.0000 0.2189 ( 13588 PWs)   bands (ev):

   -49.2546 -24.4042 -24.2126 -24.2126  -9.0005  -8.0402  -7.6970  -4.6891
    -4.6891  -4.6142  -4.5921  -4.5897   3.1530   6.2085   6.2085   7.1729
     7.8108   7.8108   8.1459   8.3622   8.9439   8.9439

          k = 0.0000 0.0000 0.4378 ( 13536 PWs)   bands (ev):

   -49.2545 -24.4124 -24.2124 -24.2124  -8.8907  -8.0260  -7.6978  -4.6970
    -4.6970  -4.6159  -4.6043  -4.5891   2.7300   6.1483   6.1483   6.7611
     7.8913   7.8913   8.1134   8.9526   8.9526   9.4439

          k = 0.0000 0.0000 0.6566 ( 13588 PWs)   bands (ev):

   -49.2546 -24.4042 -24.2126 -24.2126  -9.0005  -8.0402  -7.6970  -4.6891
    -4.6891  -4.6142  -4.5921  -4.5897   3.1530   6.2085   6.2085   7.1729
     7.8108   7.8108   8.1459   8.3622   8.9439   8.9439

          k = 0.0000 0.2500 0.0000 ( 13610 PWs)   bands (ev):

   -49.2538 -24.3940 -24.2532 -24.2115  -8.8461  -8.0319  -7.6889  -4.7115
    -4.6767  -4.6201  -4.5797  -4.5130   3.2667   5.9986   6.4678   6.5106
     7.7867   8.0856   8.1121   8.2265   8.2847   9.1626

          k = 0.0000 0.2500 0.2189 ( 13600 PWs)   bands (ev):

   -49.2537 -24.4021 -24.2528 -24.2113  -8.7637  -8.0226  -7.6689  -4.7011
    -4.6855  -4.6203  -4.5814  -4.5103   2.9207   5.8255   6.4683   6.6722
     7.6042   7.8004   7.8997   8.3679   8.5236   9.4084

          k = 0.0000 0.2500 0.4378 ( 13566 PWs)   bands (ev):

   -49.2536 -24.4102 -24.2525 -24.2110  -8.6803  -8.0122  -7.6487  -4.6942
    -4.6912  -4.6205  -4.5840  -4.5060   2.6261   5.6082   6.4165   6.7272
     7.4080   7.7289   7.8604   8.4181   8.7977   9.5769

          k = 0.0000 0.2500 0.6566 ( 13600 PWs)   bands (ev):

   -49.2537 -24.4021 -24.2528 -24.2113  -8.7637  -8.0226  -7.6689  -4.7011
    -4.6855  -4.6203  -4.5814  -4.5103   2.9207   5.8255   6.4683   6.6722
     7.6042   7.8004   7.8997   8.3679   8.5236   9.4084

          k = 0.0000 0.5000 0.0000 ( 13620 PWs)   bands (ev):

   -49.2528 -24.3917 -24.2934 -24.2101  -8.5558  -8.0106  -7.7007  -4.7119
    -4.6722  -4.6495  -4.5117  -4.5110   2.9128   5.5533   6.7492   7.0589
     7.1305   7.2753   8.0242   8.0874   8.1518  10.3913

          k = 0.0000 0.5000 0.2189 ( 13620 PWs)   bands (ev):

   -49.2527 -24.3996 -24.2930 -24.2099  -8.5183  -7.9902  -7.6551  -4.6951
    -4.6818  -4.6505  -4.5226  -4.4719   2.7295   5.4781   6.5413   6.7796
     7.0866   7.1778   7.8726   8.1759   8.5317   9.9969

          k = 0.0000 0.5000 0.4378 ( 13640 PWs)   bands (ev):

   -49.2526 -24.4075 -24.2925 -24.2096  -8.4869  -7.9695  -7.6004  -4.6913
    -4.6778  -4.6515  -4.5348  -4.4322   2.5626   5.3118   6.1617   6.8354
     6.9429   7.3027   7.5904   8.2828   9.1244   9.4390

          k = 0.0000 0.5000 0.6566 ( 13620 PWs)   bands (ev):

   -49.2527 -24.3996 -24.2930 -24.2099  -8.5183  -7.9902  -7.6551  -4.6951
    -4.6818  -4.6505  -4.5226  -4.4719   2.7295   5.4781   6.5413   6.7796
     7.0866   7.1778   7.8726   8.1759   8.5317   9.9969

          k = 0.0000 0.7500 0.0000 ( 13610 PWs)   bands (ev):

   -49.2538 -24.3940 -24.2532 -24.2115  -8.8461  -8.0319  -7.6889  -4.7115
    -4.6767  -4.6201  -4.5797  -4.5130   3.2667   5.9986   6.4678   6.5106
     7.7867   8.0856   8.1121   8.2265   8.2847   9.1626

          k = 0.0000 0.7500 0.2189 ( 13600 PWs)   bands (ev):

   -49.2537 -24.4021 -24.2528 -24.2113  -8.7637  -8.0226  -7.6689  -4.7011
    -4.6855  -4.6203  -4.5814  -4.5103   2.9207   5.8255   6.4683   6.6722
     7.6042   7.8004   7.8997   8.3679   8.5236   9.4084

          k = 0.0000 0.7500 0.4378 ( 13566 PWs)   bands (ev):

   -49.2536 -24.4102 -24.2525 -24.2110  -8.6803  -8.0122  -7.6487  -4.6942
    -4.6912  -4.6205  -4.5840  -4.5060   2.6261   5.6082   6.4165   6.7272
     7.4080   7.7289   7.8604   8.4181   8.7977   9.5769

          k = 0.0000 0.7500 0.6566 ( 13600 PWs)   bands (ev):

   -49.2537 -24.4021 -24.2528 -24.2113  -8.7637  -8.0226  -7.6689  -4.7011
    -4.6855  -4.6203  -4.5814  -4.5103   2.9207   5.8255   6.4683   6.6722
     7.6042   7.8004   7.8997   8.3679   8.5236   9.4084

          k = 0.2500 0.0000 0.0000 ( 13610 PWs)   bands (ev):

   -49.2538 -24.3940 -24.2532 -24.2115  -8.8461  -8.0319  -7.6889  -4.7115
    -4.6767  -4.6201  -4.5797  -4.5130   3.2667   5.9986   6.4678   6.5106
     7.7867   8.0856   8.1121   8.2265   8.2847   9.1626

          k = 0.2500 0.0000 0.2189 ( 13600 PWs)   bands (ev):

   -49.2537 -24.4021 -24.2528 -24.2113  -8.7637  -8.0226  -7.6689  -4.7011
    -4.6855  -4.6203  -4.5814  -4.5103   2.9207   5.8255   6.4683   6.6722
     7.6042   7.8004   7.8997   8.3679   8.5236   9.4084

          k = 0.2500 0.0000 0.4378 ( 13566 PWs)   bands (ev):

   -49.2536 -24.4102 -24.2525 -24.2110  -8.6803  -8.0122  -7.6487  -4.6942
    -4.6912  -4.6205  -4.5840  -4.5060   2.6261   5.6082   6.4165   6.7272
     7.4080   7.7289   7.8604   8.4181   8.7977   9.5769

          k = 0.2500 0.0000 0.6566 ( 13600 PWs)   bands (ev):

   -49.2537 -24.4021 -24.2528 -24.2113  -8.7637  -8.0226  -7.6689  -4.7011
    -4.6855  -4.6203  -4.5814  -4.5103   2.9207   5.8255   6.4683   6.6722
     7.6042   7.8004   7.8997   8.3679   8.5236   9.4084

          k = 0.2500 0.2500 0.0000 ( 13580 PWs)   bands (ev):

   -49.2528 -24.3921 -24.2517 -24.2515  -8.5878  -8.0036  -7.7036  -4.6817
    -4.6766  -4.6227  -4.5342  -4.4848   2.9493   6.0355   6.1426   6.6660
     7.1085   7.2473   8.1998   8.2394   9.0020   9.4496

          k = 0.2500 0.2500 0.2189 ( 13582 PWs)   bands (ev):

   -49.2527 -24.4001 -24.2514 -24.2513  -8.5182  -8.0042  -7.6716  -4.6842
    -4.6537  -4.6207  -4.5320  -4.4753   2.8470   5.7897   5.8162   6.3393
     7.1581   7.1853   8.2870   8.6400   9.0290   9.2464

          k = 0.2500 0.2500 0.4378 ( 13634 PWs)   bands (ev):

   -49.2526 -24.4080 -24.2510 -24.2510  -8.4508  -8.0048  -7.6348  -4.6854
    -4.6301  -4.6162  -4.5326  -4.4669   2.7195   5.5535   5.6630   6.2284
     6.7504   7.1662   8.6389   8.8821   8.9576   9.0924

          k = 0.2500 0.2500 0.6566 ( 13582 PWs)   bands (ev):

   -49.2527 -24.4001 -24.2514 -24.2513  -8.5182  -8.0042  -7.6716  -4.6842
    -4.6537  -4.6207  -4.5320  -4.4753   2.8470   5.7897   5.8162   6.3393
     7.1581   7.1853   8.2870   8.6400   9.0290   9.2464

          k = 0.2500 0.5000 0.0000 ( 13594 PWs)   bands (ev):

   -49.2519 -24.3897 -24.2917 -24.2501  -8.2925  -7.9801  -7.7426  -4.6642
    -4.6501  -4.5953  -4.4925  -4.4919   2.6560   5.5784   6.2889   6.4529
     7.2240   7.2952   7.4850   8.3060   9.1304   9.4880

          k = 0.2500 0.5000 0.2189 ( 13596 PWs)   bands (ev):

   -49.2518 -24.3976 -24.2913 -24.2498  -8.2605  -7.9766  -7.6872  -4.6577
    -4.6313  -4.5920  -4.4878  -4.4581   2.7405   5.5171   5.6569   5.8910
     6.7265   7.4279   8.1395   8.5894   8.9837   9.1746

          k = 0.2500 0.5000 0.4378 ( 13608 PWs)   bands (ev):

   -49.2517 -24.4055 -24.2909 -24.2495  -8.2381  -7.9733  -7.6188  -4.6558
    -4.6049  -4.5921  -4.4858  -4.4213   2.8174   5.3198   5.3216   5.6396
     6.4249   7.1841   8.0118   8.8772   9.0931   9.2667

          k = 0.2500 0.5000 0.6566 ( 13596 PWs)   bands (ev):

   -49.2518 -24.3976 -24.2913 -24.2498  -8.2605  -7.9766  -7.6872  -4.6577
    -4.6313  -4.5920  -4.4878  -4.4581   2.7405   5.5171   5.6569   5.8910
     6.7265   7.4279   8.1395   8.5894   8.9837   9.1746

          k = 0.2500 0.7500 0.0000 ( 13580 PWs)   bands (ev):

   -49.2528 -24.3921 -24.2517 -24.2515  -8.5878  -8.0036  -7.7036  -4.6817
    -4.6766  -4.6227  -4.5342  -4.4848   2.9493   6.0355   6.1426   6.6660
     7.1085   7.2473   8.1998   8.2394   9.0020   9.4496

          k = 0.2500 0.7500 0.2189 ( 13582 PWs)   bands (ev):

   -49.2527 -24.4001 -24.2514 -24.2513  -8.5182  -8.0042  -7.6716  -4.6842
    -4.6537  -4.6207  -4.5320  -4.4753   2.8470   5.7897   5.8162   6.3393
     7.1581   7.1853   8.2870   8.6400   9.0290   9.2464

          k = 0.2500 0.7500 0.4378 ( 13634 PWs)   bands (ev):

   -49.2526 -24.4080 -24.2510 -24.2510  -8.4508  -8.0048  -7.6348  -4.6854
    -4.6301  -4.6162  -4.5326  -4.4669   2.7195   5.5535   5.6630   6.2284
     6.7504   7.1662   8.6388   8.8821   8.9576   9.0924

          k = 0.2500 0.7500 0.6566 ( 13582 PWs)   bands (ev):

   -49.2527 -24.4001 -24.2514 -24.2513  -8.5182  -8.0042  -7.6716  -4.6842
    -4.6537  -4.6207  -4.5320  -4.4753   2.8470   5.7897   5.8162   6.3393
     7.1581   7.1853   8.2870   8.6400   9.0290   9.2464

          k = 0.5000 0.0000 0.0000 ( 13620 PWs)   bands (ev):

   -49.2528 -24.3917 -24.2934 -24.2101  -8.5558  -8.0106  -7.7007  -4.7119
    -4.6722  -4.6495  -4.5117  -4.5110   2.9128   5.5533   6.7492   7.0589
     7.1305   7.2753   8.0242   8.0874   8.1518  10.3913

          k = 0.5000 0.0000 0.2189 ( 13620 PWs)   bands (ev):

   -49.2527 -24.3996 -24.2930 -24.2099  -8.5183  -7.9902  -7.6551  -4.6951
    -4.6818  -4.6505  -4.5226  -4.4719   2.7295   5.4781   6.5413   6.7796
     7.0866   7.1778   7.8726   8.1759   8.5317   9.9969

          k = 0.5000 0.0000 0.4378 ( 13640 PWs)   bands (ev):

   -49.2526 -24.4075 -24.2925 -24.2096  -8.4869  -7.9695  -7.6004  -4.6913
    -4.6778  -4.6515  -4.5348  -4.4322   2.5626   5.3118   6.1617   6.8354
     6.9429   7.3027   7.5904   8.2828   9.1244   9.4390

          k = 0.5000 0.0000 0.6566 ( 13620 PWs)   bands (ev):

   -49.2527 -24.3996 -24.2930 -24.2099  -8.5183  -7.9902  -7.6551  -4.6951
    -4.6818  -4.6505  -4.5226  -4.4719   2.7295   5.4781   6.5413   6.7796
     7.0866   7.1778   7.8726   8.1759   8.5317   9.9969

          k = 0.5000 0.2500 0.0000 ( 13594 PWs)   bands (ev):

   -49.2519 -24.3897 -24.2917 -24.2501  -8.2925  -7.9801  -7.7426  -4.6642
    -4.6501  -4.5953  -4.4925  -4.4919   2.6560   5.5784   6.2889   6.4529
     7.2240   7.2952   7.4850   8.3060   9.1305   9.4880

          k = 0.5000 0.2500 0.2189 ( 13596 PWs)   bands (ev):

   -49.2518 -24.3976 -24.2913 -24.2498  -8.2605  -7.9766  -7.6872  -4.6577
    -4.6313  -4.5920  -4.4878  -4.4581   2.7405   5.5171   5.6569   5.8910
     6.7265   7.4279   8.1395   8.5894   8.9837   9.1746

          k = 0.5000 0.2500 0.4378 ( 13608 PWs)   bands (ev):

   -49.2517 -24.4055 -24.2909 -24.2495  -8.2381  -7.9732  -7.6188  -4.6558
    -4.6049  -4.5921  -4.4858  -4.4213   2.8174   5.3198   5.3216   5.6396
     6.4249   7.1841   8.0118   8.8772   9.0931   9.2667

          k = 0.5000 0.2500 0.6566 ( 13596 PWs)   bands (ev):

   -49.2518 -24.3976 -24.2913 -24.2498  -8.2605  -7.9766  -7.6872  -4.6577
    -4.6313  -4.5920  -4.4878  -4.4581   2.7405   5.5171   5.6569   5.8910
     6.7265   7.4279   8.1395   8.5894   8.9837   9.1746

          k = 0.5000 0.5000 0.0000 ( 13520 PWs)   bands (ev):

   -49.2510 -24.3874 -24.2899 -24.2899  -7.9513  -7.9513  -7.8516  -4.6306
    -4.5697  -4.5106  -4.5106  -4.5001   2.3514   5.3518   6.0625   6.9011
     6.9011   7.4088   7.4088   7.9848   8.2287   9.8052

          k = 0.5000 0.5000 0.2189 ( 13608 PWs)   bands (ev):

   -49.2509 -24.3952 -24.2896 -24.2896  -7.9651  -7.9650  -7.7461  -4.6078
    -4.5688  -4.5064  -4.4687  -4.4687   2.6103   5.3162   5.8165   5.8165
     6.0655   7.2127   7.2846   8.6634   8.6634   9.7966

          k = 0.5000 0.5000 0.4378 ( 13616 PWs)   bands (ev):

   -49.2508 -24.4031 -24.2893 -24.2893  -7.9786  -7.9786  -7.6370  -4.5851
    -4.5679  -4.5135  -4.4265  -4.4265   2.9535   5.2574   5.3138   5.3138
     6.0684   6.3978   6.6173   9.3281   9.3281   9.7881

          k = 0.5000 0.5000 0.6566 ( 13608 PWs)   bands (ev):

   -49.2509 -24.3952 -24.2896 -24.2896  -7.9651  -7.9650  -7.7461  -4.6078
    -4.5688  -4.5064  -4.4687  -4.4687   2.6103   5.3162   5.8165   5.8165
     6.0655   7.2127   7.2846   8.6634   8.6634   9.7966

          k = 0.5000 0.7500 0.0000 ( 13594 PWs)   bands (ev):

   -49.2519 -24.3897 -24.2917 -24.2501  -8.2925  -7.9801  -7.7426  -4.6642
    -4.6501  -4.5953  -4.4925  -4.4919   2.6560   5.5784   6.2889   6.4529
     7.2240   7.2952   7.4850   8.3060   9.1305   9.4880

          k = 0.5000 0.7500 0.2189 ( 13596 PWs)   bands (ev):

   -49.2518 -24.3976 -24.2913 -24.2498  -8.2605  -7.9766  -7.6872  -4.6577
    -4.6313  -4.5920  -4.4878  -4.4581   2.7405   5.5171   5.6569   5.8910
     6.7265   7.4279   8.1395   8.5894   8.9837   9.1746

          k = 0.5000 0.7500 0.4378 ( 13608 PWs)   bands (ev):

   -49.2517 -24.4055 -24.2909 -24.2495  -8.2381  -7.9732  -7.6188  -4.6558
    -4.6049  -4.5921  -4.4858  -4.4213   2.8174   5.3198   5.3216   5.6396
     6.4249   7.1841   8.0118   8.8772   9.0931   9.2667

          k = 0.5000 0.7500 0.6566 ( 13596 PWs)   bands (ev):

   -49.2518 -24.3976 -24.2913 -24.2498  -8.2605  -7.9766  -7.6872  -4.6577
    -4.6313  -4.5920  -4.4878  -4.4581   2.7405   5.5171   5.6569   5.8910
     6.7265   7.4279   8.1395   8.5894   8.9837   9.1746

          k = 0.7500 0.0000 0.0000 ( 13610 PWs)   bands (ev):

   -49.2538 -24.3940 -24.2532 -24.2115  -8.8461  -8.0319  -7.6889  -4.7115
    -4.6767  -4.6201  -4.5797  -4.5130   3.2667   5.9986   6.4678   6.5106
     7.7867   8.0856   8.1121   8.2265   8.2847   9.1626

          k = 0.7500 0.0000 0.2189 ( 13600 PWs)   bands (ev):

   -49.2537 -24.4021 -24.2528 -24.2113  -8.7637  -8.0226  -7.6689  -4.7011
    -4.6855  -4.6203  -4.5814  -4.5103   2.9207   5.8255   6.4683   6.6722
     7.6042   7.8004   7.8997   8.3679   8.5236   9.4084

          k = 0.7500 0.0000 0.4378 ( 13566 PWs)   bands (ev):

   -49.2536 -24.4102 -24.2525 -24.2110  -8.6803  -8.0122  -7.6487  -4.6942
    -4.6912  -4.6205  -4.5840  -4.5060   2.6261   5.6082   6.4165   6.7272
     7.4080   7.7289   7.8604   8.4181   8.7977   9.5769

          k = 0.7500 0.0000 0.6566 ( 13600 PWs)   bands (ev):

   -49.2537 -24.4021 -24.2528 -24.2113  -8.7637  -8.0226  -7.6689  -4.7011
    -4.6855  -4.6203  -4.5814  -4.5103   2.9207   5.8255   6.4683   6.6722
     7.6042   7.8004   7.8997   8.3679   8.5236   9.4084

          k = 0.7500 0.2500 0.0000 ( 13580 PWs)   bands (ev):

   -49.2528 -24.3921 -24.2517 -24.2515  -8.5878  -8.0036  -7.7036  -4.6817
    -4.6766  -4.6227  -4.5342  -4.4848   2.9493   6.0355   6.1426   6.6660
     7.1085   7.2473   8.1998   8.2394   9.0020   9.4496

          k = 0.7500 0.2500 0.2189 ( 13582 PWs)   bands (ev):

   -49.2527 -24.4001 -24.2514 -24.2513  -8.5182  -8.0042  -7.6716  -4.6842
    -4.6537  -4.6207  -4.5320  -4.4753   2.8470   5.7897   5.8162   6.3393
     7.1581   7.1853   8.2870   8.6400   9.0290   9.2464

          k = 0.7500 0.2500 0.4378 ( 13634 PWs)   bands (ev):

   -49.2526 -24.4080 -24.2510 -24.2510  -8.4508  -8.0048  -7.6348  -4.6854
    -4.6301  -4.6162  -4.5326  -4.4669   2.7195   5.5535   5.6630   6.2284
     6.7504   7.1662   8.6388   8.8821   8.9576   9.0924

          k = 0.7500 0.2500 0.6566 ( 13582 PWs)   bands (ev):

   -49.2527 -24.4001 -24.2514 -24.2513  -8.5182  -8.0042  -7.6716  -4.6842
    -4.6537  -4.6207  -4.5320  -4.4753   2.8470   5.7897   5.8162   6.3393
     7.1581   7.1853   8.2870   8.6400   9.0290   9.2464

          k = 0.7500 0.5000 0.0000 ( 13594 PWs)   bands (ev):

   -49.2519 -24.3897 -24.2917 -24.2501  -8.2925  -7.9801  -7.7426  -4.6642
    -4.6501  -4.5953  -4.4925  -4.4919   2.6560   5.5784   6.2889   6.4529
     7.2240   7.2952   7.4850   8.3060   9.1304   9.4880

          k = 0.7500 0.5000 0.2189 ( 13596 PWs)   bands (ev):

   -49.2518 -24.3976 -24.2913 -24.2498  -8.2605  -7.9766  -7.6872  -4.6577
    -4.6313  -4.5920  -4.4878  -4.4581   2.7405   5.5171   5.6569   5.8910
     6.7265   7.4279   8.1395   8.5894   8.9837   9.1746

          k = 0.7500 0.5000 0.4378 ( 13608 PWs)   bands (ev):

   -49.2517 -24.4055 -24.2909 -24.2495  -8.2381  -7.9733  -7.6188  -4.6558
    -4.6049  -4.5921  -4.4858  -4.4213   2.8174   5.3198   5.3216   5.6396
     6.4249   7.1841   8.0118   8.8772   9.0931   9.2667

          k = 0.7500 0.5000 0.6566 ( 13596 PWs)   bands (ev):

   -49.2518 -24.3976 -24.2913 -24.2498  -8.2605  -7.9766  -7.6872  -4.6577
    -4.6313  -4.5920  -4.4878  -4.4581   2.7405   5.5171   5.6569   5.8910
     6.7265   7.4279   8.1395   8.5894   8.9837   9.1746

          k = 0.7500 0.7500 0.0000 ( 13580 PWs)   bands (ev):

   -49.2528 -24.3921 -24.2517 -24.2515  -8.5878  -8.0036  -7.7036  -4.6817
    -4.6766  -4.6227  -4.5342  -4.4848   2.9493   6.0355   6.1426   6.6660
     7.1085   7.2473   8.1998   8.2394   9.0020   9.4496

          k = 0.7500 0.7500 0.2189 ( 13582 PWs)   bands (ev):

   -49.2527 -24.4001 -24.2514 -24.2513  -8.5182  -8.0042  -7.6716  -4.6842
    -4.6537  -4.6207  -4.5320  -4.4753   2.8470   5.7897   5.8162   6.3393
     7.1581   7.1853   8.2870   8.6400   9.0290   9.2464

          k = 0.7500 0.7500 0.4378 ( 13634 PWs)   bands (ev):

   -49.2526 -24.4080 -24.2510 -24.2510  -8.4508  -8.0048  -7.6348  -4.6854
    -4.6301  -4.6162  -4.5326  -4.4669   2.7195   5.5535   5.6630   6.2284
     6.7504   7.1662   8.6389   8.8821   8.9576   9.0924

          k = 0.7500 0.7500 0.6566 ( 13582 PWs)   bands (ev):

   -49.2527 -24.4001 -24.2514 -24.2513  -8.5182  -8.0042  -7.6716  -4.6842
    -4.6537  -4.6207  -4.5320  -4.4753   2.8470   5.7897   5.8162   6.3393
     7.1581   7.1853   8.2870   8.6400   9.0290   9.2464

     highest occupied level (ev):    10.3913

!    total energy              =    -324.04313852 Ry
     estimated scf accuracy    <          9.9E-09 Ry

     The total energy is the sum of the following terms:
     one-electron contribution =     -85.33207976 Ry
     hartree contribution      =      68.68799187 Ry
     xc contribution           =     -49.02986243 Ry
     ewald contribution        =    -258.36918820 Ry

     convergence has been achieved in  20 iterations
     Writing meta-gga kinetic term

     Writing output data file pwscf/pbtio3.save/
     Writing meta-gga kinetic term
 
     init_run     :      1.24s CPU      1.50s WALL (       1 calls)
     electrons    :     82.83s CPU     87.36s WALL (       1 calls)

     Called by init_run:
     wfcinit      :      1.20s CPU      1.33s WALL (       1 calls)
     potinit      :      0.01s CPU      0.01s WALL (       1 calls)
     hinit0       :      0.01s CPU      0.15s WALL (       1 calls)

     Called by electrons:
     c_bands      :     71.48s CPU     75.35s WALL (      20 calls)
     sum_band     :     11.20s CPU     11.84s WALL (      20 calls)
     v_of_rho     :      0.07s CPU      0.07s WALL (      21 calls)
     mix_rho      :      0.03s CPU      0.04s WALL (      20 calls)

     Called by c_bands:
     init_us_2    :      0.32s CPU      0.35s WALL (    2624 calls)
     cegterg      :     70.20s CPU     73.99s WALL (    1280 calls)

     Called by *egterg:
     cdiaghg      :      3.61s CPU      3.80s WALL (    6772 calls)
     h_psi        :     66.03s CPU     69.68s WALL (    6836 calls)
     g_psi        :      0.04s CPU      0.04s WALL (    5492 calls)

     Called by h_psi:
     h_psi:calbec :      0.83s CPU      0.87s WALL (    6836 calls)
     vloc_psi     :     16.43s CPU     17.27s WALL (    6836 calls)
     add_vuspsi   :      0.30s CPU      0.31s WALL (    6836 calls)
     h_psi_meta   :     48.36s CPU     51.11s WALL (    6836 calls)

     General routines
     calbec       :      0.81s CPU      0.85s WALL (    6836 calls)
     fft          :      0.05s CPU      0.17s WALL (     249 calls)
     ffts         :      0.01s CPU      0.01s WALL (      40 calls)
     fftw         :     72.11s CPU     76.12s WALL (  801368 calls)
     interpolate  :      0.00s CPU      0.00s WALL (      21 calls)
 
     Parallel routines
     fft_scatt_xy :      3.57s CPU      3.77s WALL (  801657 calls)
     fft_scatt_yz :     53.32s CPU     56.27s WALL (  801657 calls)
 
     PWSCF        :   1m24.88s CPU   1m31.36s WALL

 
   This run was terminated on:   3:26:34   8Sep2021            

=------------------------------------------------------------------------------=
   JOB DONE.
=------------------------------------------------------------------------------=
