1000K18x18x18/cubic.lmp (written by ASE) 

29160 	 atoms 
3  atom types
0.0      69.233384117399993  xlo xhi
0.0      69.233384117399993  ylo yhi
0.0      69.233384117399993  zlo zhi


Atoms 

     1   1      5.8086966265999997      5.8086966265999997      3.8462991176000001
     2   1      3.8462991176000001      9.6549957443000007      9.6549957443000007
     3   1      5.8086966265999997      9.6549957443000007      7.6925982353000002
     4   1      5.8086966265999997      7.6925982353000002      5.8086966265999997
     5   1      3.8462991176000001      9.6549957443000007      5.8086966265999997
     6   1      5.8086966265999997      9.6549957443000007      3.8462991176000001
     7   1      5.8086966265999997      7.6925982353000002      1.9623975090000001
     8   1      3.8462991176000001      9.6549957443000007      1.9623975090000001
     9   1      5.8086966265999997      9.6549957443000007                       0
    10   1      5.8086966265999997      3.8462991176000001      9.6549957443000007
    11   1      3.8462991176000001      5.8086966265999997      9.6549957443000007
    12   1      5.8086966265999997      5.8086966265999997      7.6925982353000002
    13   1      5.8086966265999997      3.8462991176000001      5.8086966265999997
    14   1      3.8462991176000001      5.8086966265999997      5.8086966265999997
    15   1      7.6925982353000002      9.6549957443000007      9.6549957443000007
    16   1      5.8086966265999997      3.8462991176000001      1.9623975090000001
    17   1      3.8462991176000001      5.8086966265999997      1.9623975090000001
    18   1      5.8086966265999997      5.8086966265999997                       0
    19   1      5.8086966265999997                       0      9.6549957443000007
    20   1      3.8462991176000001      1.9623975090000001      9.6549957443000007
    21   1      5.8086966265999997      1.9623975090000001      7.6925982353000002
    22   1      5.8086966265999997                       0      5.8086966265999997
    23   1      5.8086966265999997      7.6925982353000002      9.6549957443000007
    24   1      9.6549957443000007      1.9623975090000001                       0
    25   1      7.6925982353000002      1.9623975090000001      1.9623975090000001
    26   1      9.6549957443000007                       0      1.9623975090000001
    27   1      9.6549957443000007      9.6549957443000007      7.6925982353000002
    28   1      9.6549957443000007      7.6925982353000002      5.8086966265999997
    29   1      7.6925982353000002      9.6549957443000007      5.8086966265999997
    30   1      9.6549957443000007      9.6549957443000007      3.8462991176000001
    31   1      9.6549957443000007      7.6925982353000002      1.9623975090000001
    32   1      7.6925982353000002      9.6549957443000007      1.9623975090000001
    33   1      9.6549957443000007      9.6549957443000007                       0
    34   1      9.6549957443000007      3.8462991176000001      9.6549957443000007
    35   1      7.6925982353000002      5.8086966265999997      9.6549957443000007
    36   1      9.6549957443000007      5.8086966265999997      7.6925982353000002
    37   1      3.8462991176000001      1.9623975090000001      5.8086966265999997
    38   1      9.6549957443000007      3.8462991176000001      5.8086966265999997
    39   1      9.6549957443000007      5.8086966265999997      3.8462991176000001
    40   1      9.6549957443000007      3.8462991176000001      1.9623975090000001
    41   1      7.6925982353000002      5.8086966265999997      1.9623975090000001
    42   1      9.6549957443000007      5.8086966265999997                       0
    43   1      9.6549957443000007                       0      9.6549957443000007
    44   1      7.6925982353000002      1.9623975090000001      9.6549957443000007
    45   1      9.6549957443000007      1.9623975090000001      7.6925982353000002
    46   1      9.6549957443000007                       0      5.8086966265999997
    47   1      7.6925982353000002      1.9623975090000001      5.8086966265999997
    48   1      9.6549957443000007      1.9623975090000001      3.8462991176000001
    49   1      7.6925982353000002      5.8086966265999997      5.8086966265999997
    50   1      5.8086966265999997      1.9623975090000001      3.8462991176000001
    51   1      9.6549957443000007      7.6925982353000002      9.6549957443000007
    52   1      1.9623975090000001      9.6549957443000007      3.8462991176000001
    53   1                       0      5.8086966265999997      5.8086966265999997
    54   1      1.9623975090000001      1.9623975090000001      7.6925982353000002
    55   1                       0      1.9623975090000001      9.6549957443000007
    56   1      1.9623975090000001                       0      9.6549957443000007
    57   1      1.9623975090000001      7.6925982353000002      1.9623975090000001
    58   1                       0      9.6549957443000007      1.9623975090000001
    59   1                       0      9.6549957443000007      5.8086966265999997
    60   1      1.9623975090000001      9.6549957443000007                       0
    61   1                       0      5.8086966265999997      1.9623975090000001
    62   1      1.9623975090000001      3.8462991176000001      9.6549957443000007
    63   1      1.9623975090000001      3.8462991176000001      1.9623975090000001
    64   1                       0      5.8086966265999997      9.6549957443000007
    65   1      1.9623975090000001      5.8086966265999997      7.6925982353000002
    66   1      1.9623975090000001      5.8086966265999997      3.8462991176000001
    67   1      1.9623975090000001      5.8086966265999997                       0
    68   1      1.9623975090000001      7.6925982353000002      5.8086966265999997
    69   1      1.9623975090000001      3.8462991176000001      5.8086966265999997
    70   1                       0      1.9623975090000001      5.8086966265999997
    71   1      5.8086966265999997                       0      1.9623975090000001
    72   1      1.9623975090000001      1.9623975090000001      3.8462991176000001
    73   1      1.9623975090000001      9.6549957443000007      7.6925982353000002
    74   1      3.8462991176000001      1.9623975090000001      1.9623975090000001
    75   1                       0      9.6549957443000007      9.6549957443000007
    76   1      5.8086966265999997      1.9623975090000001                       0
    77   1      1.9623975090000001      7.6925982353000002      9.6549957443000007
    78   1      1.9623975090000001                       0      5.8086966265999997
    79   1      1.9623975090000001                       0      1.9623975090000001
    80   1                       0      1.9623975090000001      1.9623975090000001
    81   1      1.9623975090000001      1.9623975090000001                       0
    82   2      7.6925982353000002                       0      3.8462991176000001
    83   2                       0      3.8462991176000001      3.8462991176000001
    84   2      7.6925982353000002                       0      7.6925982353000002
    85   2      7.6925982353000002      7.6925982353000002      7.6925982353000002
    86   2      7.6925982353000002      3.8462991176000001                       0
    87   2      7.6925982353000002      7.6925982353000002      3.8462991176000001
    88   2                       0                       0      3.8462991176000001
    89   2      7.6925982353000002      3.8462991176000001      3.8462991176000001
    90   2      7.6925982353000002      7.6925982353000002                       0
    91   2      7.6925982353000002      3.8462991176000001      7.6925982353000002
    92   2                       0                       0      7.6925982353000002
    93   2                       0      3.8462991176000001                       0
    94   2                       0      3.8462991176000001      7.6925982353000002
    95   2                       0                       0                       0
    96   2      3.8462991176000001      3.8462991176000001                       0
    97   2      3.8462991176000001      3.8462991176000001      3.8462991176000001
    98   2      3.8462991176000001                       0      3.8462991176000001
    99   2                       0      7.6925982353000002      3.8462991176000001
   100   2      3.8462991176000001      7.6925982353000002                       0
   101   2      3.8462991176000001      7.6925982353000002      3.8462991176000001
   102   2      3.8462991176000001      3.8462991176000001      7.6925982353000002
   103   2      3.8462991176000001                       0                       0
   104   2                       0      7.6925982353000002      7.6925982353000002
   105   2      3.8462991176000001      7.6925982353000002      7.6925982353000002
   106   2      3.8462991176000001                       0      7.6925982353000002
   107   2      7.6925982353000002                       0                       0
   108   2                       0      7.6925982353000002                       0
   109   3      9.6549957443000007      9.6549957443000007      5.8086966265999997
   110   3      5.8086966265999997      1.9623975090000001      1.9623975090000001
   111   3      5.8086966265999997      5.8086966265999997      1.9623975090000001
   112   3      5.8086966265999997      1.9623975090000001      9.6549957443000007
   113   3      1.9623975090000001      1.9623975090000001      5.8086966265999997
   114   3      1.9623975090000001      9.6549957443000007      9.6549957443000007
   115   3      9.6549957443000007      9.6549957443000007      9.6549957443000007
   116   3      9.6549957443000007      9.6549957443000007      1.9623975090000001
   117   3      1.9623975090000001      1.9623975090000001      1.9623975090000001
   118   3      5.8086966265999997      5.8086966265999997      5.8086966265999997
   119   3      9.6549957443000007      1.9623975090000001      1.9623975090000001
   120   3      1.9623975090000001      1.9623975090000001      9.6549957443000007
   121   3      5.8086966265999997      5.8086966265999997      9.6549957443000007
   122   3      1.9623975090000001      9.6549957443000007      5.8086966265999997
   123   3      9.6549957443000007      5.8086966265999997      5.8086966265999997
   124   3      5.8086966265999997      9.6549957443000007      1.9623975090000001
   125   3      1.9623975090000001      5.8086966265999997      1.9623975090000001
   126   3      9.6549957443000007      5.8086966265999997      1.9623975090000001
   127   3      5.8086966265999997      9.6549957443000007      5.8086966265999997
   128   3      1.9623975090000001      9.6549957443000007      1.9623975090000001
   129   3      9.6549957443000007      1.9623975090000001      9.6549957443000007
   130   3      5.8086966265999997      9.6549957443000007      9.6549957443000007
   131   3      1.9623975090000001      5.8086966265999997      9.6549957443000007
   132   3      1.9623975090000001      5.8086966265999997      5.8086966265999997
   133   3      9.6549957443000007      1.9623975090000001      5.8086966265999997
   134   3      9.6549957443000007      5.8086966265999997      9.6549957443000007
   135   3      5.8086966265999997      1.9623975090000001      5.8086966265999997
   136   1      5.8086966265999997      5.8086966265999997      15.385196470499999
   137   1      3.8462991176000001      9.6549957443000007           21.1938930972
   138   1      5.8086966265999997      9.6549957443000007      19.231495588199998
   139   1      5.8086966265999997      7.6925982353000002      17.347593979499997
   140   1      3.8462991176000001      9.6549957443000007      17.347593979499997
   141   1      5.8086966265999997      9.6549957443000007      15.385196470499999
   142   1      5.8086966265999997      7.6925982353000002           13.5012948619
   143   1      3.8462991176000001      9.6549957443000007           13.5012948619
   144   1      5.8086966265999997      9.6549957443000007      11.538897352899999
   145   1      5.8086966265999997      3.8462991176000001           21.1938930972
   146   1      3.8462991176000001      5.8086966265999997           21.1938930972
   147   1      5.8086966265999997      5.8086966265999997      19.231495588199998
   148   1      5.8086966265999997      3.8462991176000001      17.347593979499997
   149   1      3.8462991176000001      5.8086966265999997      17.347593979499997
   150   1      7.6925982353000002      9.6549957443000007           21.1938930972
   151   1      5.8086966265999997      3.8462991176000001           13.5012948619
   152   1      3.8462991176000001      5.8086966265999997           13.5012948619
   153   1      5.8086966265999997      5.8086966265999997      11.538897352899999
   154   1      5.8086966265999997                       0           21.1938930972
   155   1      3.8462991176000001      1.9623975090000001           21.1938930972
   156   1      5.8086966265999997      1.9623975090000001      19.231495588199998
   157   1      5.8086966265999997                       0      17.347593979499997
   158   1      5.8086966265999997      7.6925982353000002           21.1938930972
   159   1      9.6549957443000007      1.9623975090000001      11.538897352899999
   160   1      7.6925982353000002      1.9623975090000001           13.5012948619
   161   1      9.6549957443000007                       0           13.5012948619
   162   1      9.6549957443000007      9.6549957443000007      19.231495588199998
   163   1      9.6549957443000007      7.6925982353000002      17.347593979499997
   164   1      7.6925982353000002      9.6549957443000007      17.347593979499997
   165   1      9.6549957443000007      9.6549957443000007      15.385196470499999
   166   1      9.6549957443000007      7.6925982353000002           13.5012948619
   167   1      7.6925982353000002      9.6549957443000007           13.5012948619
   168   1      9.6549957443000007      9.6549957443000007      11.538897352899999
   169   1      9.6549957443000007      3.8462991176000001           21.1938930972
   170   1      7.6925982353000002      5.8086966265999997           21.1938930972
   171   1      9.6549957443000007      5.8086966265999997      19.231495588199998
   172   1      3.8462991176000001      1.9623975090000001      17.347593979499997
   173   1      9.6549957443000007      3.8462991176000001      17.347593979499997
   174   1      9.6549957443000007      5.8086966265999997      15.385196470499999
   175   1      9.6549957443000007      3.8462991176000001           13.5012948619
   176   1      7.6925982353000002      5.8086966265999997           13.5012948619
   177   1      9.6549957443000007      5.8086966265999997      11.538897352899999
   178   1      9.6549957443000007                       0           21.1938930972
   179   1      7.6925982353000002      1.9623975090000001           21.1938930972
   180   1      9.6549957443000007      1.9623975090000001      19.231495588199998
   181   1      9.6549957443000007                       0      17.347593979499997
   182   1      7.6925982353000002      1.9623975090000001      17.347593979499997
   183   1      9.6549957443000007      1.9623975090000001      15.385196470499999
   184   1      7.6925982353000002      5.8086966265999997      17.347593979499997
   185   1      5.8086966265999997      1.9623975090000001      15.385196470499999
   186   1      9.6549957443000007      7.6925982353000002           21.1938930972
   187   1      1.9623975090000001      9.6549957443000007      15.385196470499999
   188   1                       0      5.8086966265999997      17.347593979499997
   189   1      1.9623975090000001      1.9623975090000001      19.231495588199998
   190   1                       0      1.9623975090000001           21.1938930972
   191   1      1.9623975090000001                       0           21.1938930972
   192   1      1.9623975090000001      7.6925982353000002           13.5012948619
   193   1                       0      9.6549957443000007           13.5012948619
   194   1                       0      9.6549957443000007      17.347593979499997
   195   1      1.9623975090000001      9.6549957443000007      11.538897352899999
   196   1                       0      5.8086966265999997           13.5012948619
   197   1      1.9623975090000001      3.8462991176000001           21.1938930972
   198   1      1.9623975090000001      3.8462991176000001           13.5012948619
   199   1                       0      5.8086966265999997           21.1938930972
   200   1      1.9623975090000001      5.8086966265999997      19.231495588199998
   201   1      1.9623975090000001      5.8086966265999997      15.385196470499999
   202   1      1.9623975090000001      5.8086966265999997      11.538897352899999
   203   1      1.9623975090000001      7.6925982353000002      17.347593979499997
   204   1      1.9623975090000001      3.8462991176000001      17.347593979499997
   205   1                       0      1.9623975090000001      17.347593979499997
   206   1      5.8086966265999997                       0           13.5012948619
   207   1      1.9623975090000001      1.9623975090000001      15.385196470499999
   208   1      1.9623975090000001      9.6549957443000007      19.231495588199998
   209   1      3.8462991176000001      1.9623975090000001           13.5012948619
   210   1                       0      9.6549957443000007           21.1938930972
   211   1      5.8086966265999997      1.9623975090000001      11.538897352899999
   212   1      1.9623975090000001      7.6925982353000002           21.1938930972
   213   1      1.9623975090000001                       0      17.347593979499997
   214   1      1.9623975090000001                       0           13.5012948619
   215   1                       0      1.9623975090000001           13.5012948619
   216   1      1.9623975090000001      1.9623975090000001      11.538897352899999
   217   2      7.6925982353000002                       0      15.385196470499999
   218   2                       0      3.8462991176000001      15.385196470499999
   219   2      7.6925982353000002                       0      19.231495588199998
   220   2      7.6925982353000002      7.6925982353000002      19.231495588199998
   221   2      7.6925982353000002      3.8462991176000001      11.538897352899999
   222   2      7.6925982353000002      7.6925982353000002      15.385196470499999
   223   2                       0                       0      15.385196470499999
   224   2      7.6925982353000002      3.8462991176000001      15.385196470499999
   225   2      7.6925982353000002      7.6925982353000002      11.538897352899999
   226   2      7.6925982353000002      3.8462991176000001      19.231495588199998
   227   2                       0                       0      19.231495588199998
   228   2                       0      3.8462991176000001      11.538897352899999
   229   2                       0      3.8462991176000001      19.231495588199998
   230   2                       0                       0      11.538897352899999
   231   2      3.8462991176000001      3.8462991176000001      11.538897352899999
   232   2      3.8462991176000001      3.8462991176000001      15.385196470499999
   233   2      3.8462991176000001                       0      15.385196470499999
   234   2                       0      7.6925982353000002      15.385196470499999
   235   2      3.8462991176000001      7.6925982353000002      11.538897352899999
   236   2      3.8462991176000001      7.6925982353000002      15.385196470499999
   237   2      3.8462991176000001      3.8462991176000001      19.231495588199998
   238   2      3.8462991176000001                       0      11.538897352899999
   239   2                       0      7.6925982353000002      19.231495588199998
   240   2      3.8462991176000001      7.6925982353000002      19.231495588199998
   241   2      3.8462991176000001                       0      19.231495588199998
   242   2      7.6925982353000002                       0      11.538897352899999
   243   2                       0      7.6925982353000002      11.538897352899999
   244   3      9.6549957443000007      9.6549957443000007      17.347593979499997
   245   3      5.8086966265999997      1.9623975090000001           13.5012948619
   246   3      5.8086966265999997      5.8086966265999997           13.5012948619
   247   3      5.8086966265999997      1.9623975090000001           21.1938930972
   248   3      1.9623975090000001      1.9623975090000001      17.347593979499997
   249   3      1.9623975090000001      9.6549957443000007           21.1938930972
   250   3      9.6549957443000007      9.6549957443000007           21.1938930972
   251   3      9.6549957443000007      9.6549957443000007           13.5012948619
   252   3      1.9623975090000001      1.9623975090000001           13.5012948619
   253   3      5.8086966265999997      5.8086966265999997      17.347593979499997
   254   3      9.6549957443000007      1.9623975090000001           13.5012948619
   255   3      1.9623975090000001      1.9623975090000001           21.1938930972
   256   3      5.8086966265999997      5.8086966265999997           21.1938930972
   257   3      1.9623975090000001      9.6549957443000007      17.347593979499997
   258   3      9.6549957443000007      5.8086966265999997      17.347593979499997
   259   3      5.8086966265999997      9.6549957443000007           13.5012948619
   260   3      1.9623975090000001      5.8086966265999997           13.5012948619
   261   3      9.6549957443000007      5.8086966265999997           13.5012948619
   262   3      5.8086966265999997      9.6549957443000007      17.347593979499997
   263   3      1.9623975090000001      9.6549957443000007           13.5012948619
   264   3      9.6549957443000007      1.9623975090000001           21.1938930972
   265   3      5.8086966265999997      9.6549957443000007           21.1938930972
   266   3      1.9623975090000001      5.8086966265999997           21.1938930972
   267   3      1.9623975090000001      5.8086966265999997      17.347593979499997
   268   3      9.6549957443000007      1.9623975090000001      17.347593979499997
   269   3      9.6549957443000007      5.8086966265999997           21.1938930972
   270   3      5.8086966265999997      1.9623975090000001      17.347593979499997
   271   1      5.8086966265999997      5.8086966265999997           26.9240938234
   272   1      3.8462991176000001      9.6549957443000007      32.732790450099998
   273   1      5.8086966265999997      9.6549957443000007      30.770392941099999
   274   1      5.8086966265999997      7.6925982353000002      28.886491332399999
   275   1      3.8462991176000001      9.6549957443000007      28.886491332399999
   276   1      5.8086966265999997      9.6549957443000007           26.9240938234
   277   1      5.8086966265999997      7.6925982353000002      25.040192214799998
   278   1      3.8462991176000001      9.6549957443000007      25.040192214799998
   279   1      5.8086966265999997      9.6549957443000007      23.077794705799999
   280   1      5.8086966265999997      3.8462991176000001      32.732790450099998
   281   1      3.8462991176000001      5.8086966265999997      32.732790450099998
   282   1      5.8086966265999997      5.8086966265999997      30.770392941099999
   283   1      5.8086966265999997      3.8462991176000001      28.886491332399999
   284   1      3.8462991176000001      5.8086966265999997      28.886491332399999
   285   1      7.6925982353000002      9.6549957443000007      32.732790450099998
   286   1      5.8086966265999997      3.8462991176000001      25.040192214799998
   287   1      3.8462991176000001      5.8086966265999997      25.040192214799998
   288   1      5.8086966265999997      5.8086966265999997      23.077794705799999
   289   1      5.8086966265999997                       0      32.732790450099998
   290   1      3.8462991176000001      1.9623975090000001      32.732790450099998
   291   1      5.8086966265999997      1.9623975090000001      30.770392941099999
   292   1      5.8086966265999997                       0      28.886491332399999
   293   1      5.8086966265999997      7.6925982353000002      32.732790450099998
   294   1      9.6549957443000007      1.9623975090000001      23.077794705799999
   295   1      7.6925982353000002      1.9623975090000001      25.040192214799998
   296   1      9.6549957443000007                       0      25.040192214799998
   297   1      9.6549957443000007      9.6549957443000007      30.770392941099999
   298   1      9.6549957443000007      7.6925982353000002      28.886491332399999
   299   1      7.6925982353000002      9.6549957443000007      28.886491332399999
   300   1      9.6549957443000007      9.6549957443000007           26.9240938234
   301   1      9.6549957443000007      7.6925982353000002      25.040192214799998
   302   1      7.6925982353000002      9.6549957443000007      25.040192214799998
   303   1      9.6549957443000007      9.6549957443000007      23.077794705799999
   304   1      9.6549957443000007      3.8462991176000001      32.732790450099998
   305   1      7.6925982353000002      5.8086966265999997      32.732790450099998
   306   1      9.6549957443000007      5.8086966265999997      30.770392941099999
   307   1      3.8462991176000001      1.9623975090000001      28.886491332399999
   308   1      9.6549957443000007      3.8462991176000001      28.886491332399999
   309   1      9.6549957443000007      5.8086966265999997           26.9240938234
   310   1      9.6549957443000007      3.8462991176000001      25.040192214799998
   311   1      7.6925982353000002      5.8086966265999997      25.040192214799998
   312   1      9.6549957443000007      5.8086966265999997      23.077794705799999
   313   1      9.6549957443000007                       0      32.732790450099998
   314   1      7.6925982353000002      1.9623975090000001      32.732790450099998
   315   1      9.6549957443000007      1.9623975090000001      30.770392941099999
   316   1      9.6549957443000007                       0      28.886491332399999
   317   1      7.6925982353000002      1.9623975090000001      28.886491332399999
   318   1      9.6549957443000007      1.9623975090000001           26.9240938234
   319   1      7.6925982353000002      5.8086966265999997      28.886491332399999
   320   1      5.8086966265999997      1.9623975090000001           26.9240938234
   321   1      9.6549957443000007      7.6925982353000002      32.732790450099998
   322   1      1.9623975090000001      9.6549957443000007           26.9240938234
   323   1                       0      5.8086966265999997      28.886491332399999
   324   1      1.9623975090000001      1.9623975090000001      30.770392941099999
   325   1                       0      1.9623975090000001      32.732790450099998
   326   1      1.9623975090000001                       0      32.732790450099998
   327   1      1.9623975090000001      7.6925982353000002      25.040192214799998
   328   1                       0      9.6549957443000007      25.040192214799998
   329   1                       0      9.6549957443000007      28.886491332399999
   330   1      1.9623975090000001      9.6549957443000007      23.077794705799999
   331   1                       0      5.8086966265999997      25.040192214799998
   332   1      1.9623975090000001      3.8462991176000001      32.732790450099998
   333   1      1.9623975090000001      3.8462991176000001      25.040192214799998
   334   1                       0      5.8086966265999997      32.732790450099998
   335   1      1.9623975090000001      5.8086966265999997      30.770392941099999
   336   1      1.9623975090000001      5.8086966265999997           26.9240938234
   337   1      1.9623975090000001      5.8086966265999997      23.077794705799999
   338   1      1.9623975090000001      7.6925982353000002      28.886491332399999
   339   1      1.9623975090000001      3.8462991176000001      28.886491332399999
   340   1                       0      1.9623975090000001      28.886491332399999
   341   1      5.8086966265999997                       0      25.040192214799998
   342   1      1.9623975090000001      1.9623975090000001           26.9240938234
   343   1      1.9623975090000001      9.6549957443000007      30.770392941099999
   344   1      3.8462991176000001      1.9623975090000001      25.040192214799998
   345   1                       0      9.6549957443000007      32.732790450099998
   346   1      5.8086966265999997      1.9623975090000001      23.077794705799999
   347   1      1.9623975090000001      7.6925982353000002      32.732790450099998
   348   1      1.9623975090000001                       0      28.886491332399999
   349   1      1.9623975090000001                       0      25.040192214799998
   350   1                       0      1.9623975090000001      25.040192214799998
   351   1      1.9623975090000001      1.9623975090000001      23.077794705799999
   352   2      7.6925982353000002                       0           26.9240938234
   353   2                       0      3.8462991176000001           26.9240938234
   354   2      7.6925982353000002                       0      30.770392941099999
   355   2      7.6925982353000002      7.6925982353000002      30.770392941099999
   356   2      7.6925982353000002      3.8462991176000001      23.077794705799999
   357   2      7.6925982353000002      7.6925982353000002           26.9240938234
   358   2                       0                       0           26.9240938234
   359   2      7.6925982353000002      3.8462991176000001           26.9240938234