tetra.lmp (written by ASE) 

1080 	 atoms 
3  atom types
0.0      25.386945785436254  xlo xhi
0.0      23.471956393184946  ylo yhi
0.0      23.498269965699919  zlo zhi


Atoms 

     1   1      4.8247799999999996      5.4221700000000004                 3.64602
     2   1      2.6899700000000002      9.4178599999999992      9.9001000000000001
     3   1      4.4064199999999998      9.6983800000000002      7.7675999999999998
     4   1      4.7433300000000003      7.6884399999999999      5.6458399999999997
     5   1                 2.79792      9.9514899999999997      5.3880999999999997
     6   1      4.9353699999999998      9.6954600000000006      3.6960299999999999
     7   1      4.8503100000000003      7.5309699999999999      1.7112799999999999
     8   1      2.6687400000000001      9.7572899999999994                 1.66675
     9   1      4.9603999999999999                 9.49526   -0.046924199999999999
    10   1      5.2364899999999999                 3.59964      9.3751599999999993
    11   1                 2.72709      5.6406999999999998      9.6683599999999998
    12   1      4.7007300000000001      5.7146299999999997      7.5604699999999996
    13   1      4.7739900000000004      3.6519499999999998                 5.76457
    14   1      2.9571299999999998      5.6766899999999998      5.3200200000000004
    15   1      6.6915199999999997      9.6166699999999992      9.4208499999999997
    16   1      4.9862500000000001      3.8043800000000001                 1.82884
    17   1      2.5991200000000001      5.5619899999999998                 1.89228
    18   1                 4.95505      5.4452499999999997      23.236799999999999
    19   1      4.5381900000000002    -0.14010800000000001      9.5533099999999997
    20   1                 2.71014                 1.64357      9.5826600000000006
    21   1      4.8547399999999996      1.6670700000000001                 7.42204
    22   1      4.7041300000000001      23.227900000000002      5.6109200000000001
    23   1                 4.91303      7.6130500000000003      9.6072399999999991
    24   1      9.2577700000000007                 1.91984    -0.15071200000000001
    25   1      6.9235699999999998      1.6541300000000001      1.7075899999999999
    26   1      8.9340600000000006      23.389199999999999                 1.62141
    27   1      9.1675500000000003      9.7332800000000006      7.6063999999999998
    28   1      8.9696200000000008      7.6806599999999996      5.6666100000000004
    29   1      6.6310799999999999      9.8053600000000003      5.7621500000000001
    30   1      8.8828200000000006      9.6670800000000003      3.7183700000000002
    31   1      8.9618599999999997      7.6413200000000003                 1.89496
    32   1                  6.9379      9.7051099999999995                 1.98973
    33   1                 9.10121      9.4453800000000001      23.370200000000001
    34   1      9.2169299999999996                  3.6795      9.8474599999999999
    35   1      7.0327799999999998      5.5403200000000004      9.4179399999999998
    36   1      9.1861200000000007      5.4521100000000002      7.4522399999999998
    37   1      2.7498999999999998      1.8648800000000001      5.9373399999999998
    38   1      8.9135500000000008                 3.71827      5.6516299999999999
    39   1      9.1046800000000001      5.7591200000000002      3.7660499999999999
    40   1      8.9175299999999993      3.6619299999999999                 1.98028
    41   1      7.1483400000000001      5.7646600000000001                 1.97133
    42   1      9.3283699999999996                 5.52447   -0.015833099999999999
    43   1      9.1255199999999999      23.219200000000001      9.6799599999999995
    44   1      6.9363999999999999      1.3252200000000001      9.5814900000000005
    45   1      9.0466200000000008      1.9825299999999999      7.7218400000000003
    46   1      9.2995199999999993      23.254300000000001      5.6989000000000001
    47   1      6.9261100000000004                 1.87917      5.3633499999999996
    48   1                  9.2081      1.7709900000000001      3.6977500000000001
    49   1      6.8357700000000001      5.6681299999999997      5.6926800000000002
    50   1      4.7848899999999999      1.8160099999999999      3.7281499999999999
    51   1      8.7146799999999995      7.5627399999999998      9.6069600000000008
    52   1     0.58331699999999997      9.6010299999999997      3.6074700000000002
    53   1      23.952100000000002      5.8510499999999999      5.7709599999999996
    54   1     0.51691699999999996                  1.5142      7.6726099999999997
    55   1      23.863299999999999      1.6516599999999999      9.5174400000000006
    56   1     0.86091899999999999    -0.21393799999999999      9.6433900000000001
    57   1     0.60743800000000003      7.7336900000000002                 1.71977
    58   1                 24.0962      9.6110500000000005                 1.56898
    59   1      24.232299999999999      9.6230899999999995      5.9135099999999996
    60   1     0.69554099999999996      9.5654400000000006      23.312200000000001
    61   1                 23.7986      5.7014800000000001                 1.82209
    62   1     0.53150299999999995                 3.71611      9.4032300000000006
    63   1     0.45939200000000002      3.8097500000000002                 1.59304
    64   1                 24.0152      5.6816700000000004      9.4485600000000005
    65   1     0.68237199999999998      5.7234600000000002      7.5926299999999998
    66   1     0.54286699999999999      5.8902099999999997      3.6387700000000001
    67   1     0.71112399999999998      5.8355300000000003                 23.1831
    68   1     0.58219299999999996      7.7047600000000003      5.6196599999999997
    69   1                0.928624      3.7571300000000001      5.5260100000000003
    70   1      24.159099999999999      1.7856799999999999      5.6750299999999996
    71   1      5.0243700000000002      23.173500000000001      1.7232400000000001
    72   1     0.84973200000000004                 1.59934      3.6328800000000001
    73   1                0.670072      9.3838399999999993      7.5781499999999999
    74   1      2.7619600000000002      2.0590700000000002      1.5474000000000001
    75   1                 24.0199      9.6374700000000004      9.8163699999999992
    76   1      5.0132000000000003      2.0406200000000001                 23.3644
    77   1     0.65495700000000001      7.5592600000000001      9.4838500000000003
    78   1     0.69925400000000004      23.264500000000002                 5.37852
    79   1     0.77337400000000001               -0.121171                 1.41177
    80   1      23.986799999999999                  1.8387      1.7282299999999999
    81   1     0.50061599999999995                 2.02006      23.200700000000001
    82   2      7.3679899999999998                 23.1523      3.7286100000000002
    83   2     -1.0427900000000001      3.6330800000000001      3.5217200000000002
    84   2      7.4283700000000001    -0.17698900000000001      7.4932699999999999
    85   2      7.0724499999999999      7.8445499999999999      7.6848000000000001
    86   2      7.4773399999999999      3.7417500000000001     0.21454400000000001
    87   2      7.5108100000000002      7.5084499999999998                 3.87798
    88   2    -0.77528600000000003                -0.20165      3.5143900000000001
    89   2      7.3020100000000001      3.8167800000000001      3.8112499999999998
    90   2      7.8989000000000003      7.6474299999999999                 23.1312
    91   2      7.2420900000000001      3.9321799999999998      7.3947799999999999
    92   2     -1.0700799999999999                 23.0914      7.7949900000000003
    93   2     -1.0405500000000001                  3.9417      23.136900000000001
    94   2    -0.92181199999999996      3.8039800000000001      7.5704099999999999
    95   2    -0.94489800000000002      23.274100000000001      23.244700000000002
    96   2      3.3315899999999998      3.8773900000000001    -0.18651599999999999
    97   2      3.1346400000000001      3.4960300000000002                 3.47723
    98   2      3.2078700000000002      23.165400000000002      3.7983099999999999
    99   2    -0.89578500000000005      7.4751099999999999                 3.84368
   100   2                 3.36897      7.6068499999999997    -0.12893199999999999
   101   2                 2.96339      7.4089600000000004      3.4523899999999998
   102   2      3.3124500000000001      3.3309199999999999      7.5478399999999999
   103   2      3.3393600000000001      22.985800000000001   -0.074202199999999996
   104   2                -1.00267      7.6366199999999997      7.4255800000000001
   105   2      3.2722099999999998      7.7497299999999996      7.8927899999999998
   106   2      3.2830599999999999      23.183700000000002      7.4985200000000001
   107   2      7.2266300000000001   -0.029850000000000002                 23.2758
   108   2    -0.85499400000000003      7.4904700000000002      23.292000000000002
   109   3      9.4788899999999998      9.5488300000000006      5.6955499999999999
   110   3      5.1319400000000002      1.8447100000000001                 1.67476
   111   3      5.3834900000000001      5.7467199999999998                 1.77878
   112   3                 5.18485      1.5650900000000001      9.4281299999999995
   113   3     0.83367199999999997                  1.6128      5.6888100000000001
   114   3     0.92486199999999996      9.4993599999999994      9.5936599999999999
   115   3      9.3853200000000001      9.7250999999999994      9.5860599999999998
   116   3      9.4955099999999995      9.5511400000000002      1.9438299999999999
   117   3      1.0057100000000001      1.7412300000000001                 1.72834
   118   3      4.9334699999999998      5.7217500000000001      5.5436199999999998
   119   3      9.3836399999999998      1.6052999999999999                 1.89341
   120   3     0.87277499999999997                 1.84273      9.6164400000000008
   121   3                 5.18682      5.5548999999999999      9.5264399999999991
   122   3     0.88163999999999998      9.6049500000000005      5.8288500000000001
   123   3      9.3643000000000001      5.5698699999999999      5.6529400000000001
   124   3      5.2758799999999999      9.4764099999999996                 1.88005
   125   3     0.69456399999999996      5.8525999999999998                 1.69936
   126   3      9.4542400000000004      5.5674400000000004      1.7790900000000001
   127   3      4.8870699999999996      9.5331399999999995      5.5828499999999996
   128   3     0.82825700000000002      9.6834199999999999                 1.71021
   129   3      9.3566599999999998                 1.82961      9.6418999999999997
   130   3      4.8583400000000001      9.7703299999999995      9.6500400000000006
   131   3     0.94270799999999999      5.7105300000000003      9.4339700000000004
   132   3      1.1202300000000001      5.4897499999999999      5.6549300000000002
   133   3      9.4299400000000002      1.6122799999999999                 5.54514
   134   3      9.0752799999999993                 5.73935      9.5967500000000001
   135   3      5.2215499999999997      1.6938200000000001      5.5720900000000002
   136   1      4.9286300000000001      5.5863800000000001                 15.5245
   137   1                 3.00936      9.5519300000000005      21.225100000000001
   138   1      5.0584800000000003      9.5771499999999996                 19.3371
   139   1                 4.93628      7.5829399999999998      17.577999999999999
   140   1      2.7463099999999998      9.4370200000000004      17.360199999999999
   141   1      5.0595299999999996      9.4895200000000006                    15.4
   142   1      4.9511599999999998      7.6314200000000003                 13.5189
   143   1      2.8100999999999998      9.4920899999999993                 13.7204
   144   1      4.6850500000000004      9.6690799999999992                 11.6905
   145   1      5.1210000000000004      3.7659600000000002      21.207999999999998
   146   1      2.8810500000000001      5.7745600000000001      21.349299999999999
   147   1      4.8034600000000003      5.6385800000000001      19.467099999999999
   148   1      4.7784599999999999      3.8178800000000002      17.323899999999998
   149   1      2.7327499999999998      5.5177300000000002      17.575800000000001
   150   1      7.0297200000000002      9.4270899999999997      21.344799999999999
   151   1                 5.01471      3.5800900000000002      13.742100000000001
   152   1                 2.94015      5.7645999999999997                 13.5215
   153   1                 4.92936      5.4045500000000004                 11.5837
   154   1      4.8436000000000003                 23.3263      21.437200000000001
   155   1      2.7843200000000001                 1.70391      21.457699999999999
   156   1      4.6318799999999998                 1.76573      19.459800000000001
   157   1                 4.88049      23.249500000000001      17.657399999999999
   158   1      4.9247500000000004      7.6306599999999998      21.369900000000001
   159   1      8.9959500000000006                 1.43137      11.638500000000001
   160   1      7.0170199999999996                 1.73275      13.516999999999999
   161   1      9.4031800000000008                 23.2148      13.805300000000001
   162   1                 9.62514      9.3876000000000008      19.312799999999999
   163   1      9.2717100000000006                  7.4638      17.295100000000001
   164   1                 7.06257      9.2984399999999994      17.482299999999999
   165   1      8.8349899999999995      9.6324400000000008                 15.4374
   166   1      9.1447400000000005                 7.63218                 13.5183
   167   1      7.0332299999999996      9.6338899999999992      13.277200000000001
   168   1                 9.01431      9.4028500000000008                 11.4069
   169   1      8.8517200000000003      3.8541699999999999      21.241700000000002
   170   1      7.1360400000000004                 5.83988                 21.0989
   171   1      9.1392799999999994      5.3294800000000002      19.157299999999999
   172   1                 2.66648      1.8333600000000001      17.628499999999999
   173   1      9.0871300000000002      3.5957699999999999      17.268799999999999
   174   1      9.0542599999999993      5.5452599999999999                  15.436
   175   1      9.2368900000000007      3.7394699999999998                 13.5504
   176   1                 6.93506      5.3578900000000003                 13.5052
   177   1      8.7997399999999999      5.6928799999999997                  11.589
   178   1      9.0664200000000008               -0.173096                  21.599
   179   1      6.8885899999999998                   1.544      21.171199999999999
   180   1      9.1861099999999993                 1.76433      19.346399999999999
   181   1      9.3114100000000004               -0.225549                 17.1143
   182   1      6.9558799999999996                 1.43597                 17.3796
   183   1      9.1774100000000001                 1.84002                 15.4687
   184   1      7.1034199999999998      5.4645099999999998      17.495799999999999
   185   1      5.1181400000000004      1.7670300000000001                 15.4998
   186   1      9.2740100000000005      7.4796500000000004      21.180499999999999
   187   1     0.52202899999999997      9.3738200000000003      15.392899999999999
   188   1      23.797699999999999      5.6833600000000004      17.394400000000001
   189   1                0.458509                 1.79287                 19.4376
   190   1      23.740200000000002      1.5863700000000001      21.233599999999999
   191   1     0.84577199999999997    -0.16423599999999999      21.410900000000002
   192   1     0.52344500000000005      7.5879300000000001                  13.266
   193   1      23.851600000000001      9.5583799999999997      13.266999999999999
   194   1      23.909700000000001      9.4226899999999993      17.435400000000001
   195   1     0.99730200000000002      9.3669899999999995                 11.5169
   196   1                 23.6706      5.6323800000000004                 13.6356
   197   1     0.53939599999999999      3.7088700000000001                 21.1996
   198   1     0.55446600000000001      3.6817700000000002                 13.4575
   199   1      23.947700000000001                 5.80647                 21.2517
   200   1     0.56777699999999998      5.7779999999999996      19.254999999999999
   201   1     0.94011900000000004      5.8200200000000004      15.344900000000001
   202   1     0.61555000000000004      5.5038299999999998      11.527900000000001
   203   1     0.60477000000000003      7.6395200000000001      17.460599999999999
   204   1     0.63105999999999995      3.7988400000000002      17.216000000000001
   205   1      24.069199999999999      1.7522500000000001      17.302299999999999
   206   1      4.9047799999999997               -0.212205                 13.4252
   207   1     0.94828699999999999      1.8650599999999999      15.482799999999999
   208   1     0.78563899999999998      9.6810500000000008      19.364799999999999
   209   1      2.9515400000000001                 2.05111                 13.2402
   210   1      23.809000000000001      9.8240800000000004      21.145499999999998
   211   1      4.9889599999999996                 1.94398                 11.2987
   212   1     0.79289299999999996                 7.73773      21.296299999999999
   213   1                  0.7097    -0.17200499999999999      17.355599999999999
   214   1     0.63942200000000005      23.296299999999999                 13.5548
   215   1      24.001899999999999                 1.68669      13.978400000000001
   216   1                0.629251                 1.88368                 11.7104
   217   2      7.7048300000000003      23.068999999999999                 15.5869
   218   2                 24.1693                 3.73767      15.572100000000001
   219   2      7.5735099999999997      23.279499999999999      19.308900000000001
   220   2      7.2523900000000001      7.4717000000000002                 19.1492
   221   2      7.2971700000000004      3.6184500000000002      11.636100000000001
   222   2      7.3573599999999999      7.5881499999999997                 15.1571
   223   2                 -1.0481    0.015963000000000001      15.710000000000001
   224   2      7.5462699999999998                 3.74024                 15.4903
   225   2      7.1839300000000001      7.5940200000000004                 11.5768
   226   2      7.4934200000000004                 3.65503      19.291699999999999
   227   2    -0.79380799999999996      23.115400000000001                 19.5748
   228   2    -0.79503699999999999      4.0008600000000003      11.670199999999999
   229   2    -0.84338800000000003      3.6341299999999999      19.585000000000001
   230   2      24.228100000000001    -0.14252899999999999      11.663500000000001
   231   2                 3.06901      3.7681200000000001                  11.429
   232   2      3.1242999999999999      3.8938700000000002      15.524800000000001
   233   2      3.2280700000000002      23.081800000000001      15.312099999999999
   234   2      24.220700000000001      7.5318100000000001                 15.4345
   235   2      3.0933600000000001                 7.52034                 11.4476
   236   2      3.5804200000000002      7.7627100000000002                 15.6188
   237   2                 3.30898                 3.66879      19.611000000000001
   238   2      3.0722100000000001                0.189216                 11.4452
   239   2    -0.92715700000000001      7.9255699999999996      19.263400000000001
   240   2      3.2530000000000001      7.4745299999999997      19.302299999999999
   241   2                 2.88293    -0.16639699999999999                 19.3871
   242   2      7.2041300000000001               -0.153554      11.625299999999999
   243   2      24.175599999999999      7.8967999999999998                 11.5945
   244   3      9.4081700000000001      9.7114600000000006                 17.3004
   245   3      5.2704300000000002      1.6855199999999999                 13.5906
   246   3                 5.10555                 5.48428      13.568099999999999
   247   3      5.1844000000000001      1.7409399999999999      21.383900000000001
   248   3     0.94514699999999996      1.9531700000000001                 17.4512
   249   3                 1.23872      9.6974800000000005      21.385400000000001
   250   3      9.5372000000000003      9.3548500000000008      21.396999999999998
   251   3      9.2432700000000008      9.4985499999999998      13.296099999999999
   252   3                 1.15951      1.9105799999999999      13.486499999999999
   253   3                  5.2416      5.4682700000000004      17.597799999999999
   254   3      9.5093599999999991      1.6742699999999999      13.577999999999999
   255   3      1.0375099999999999      1.7243900000000001                 21.5472
   256   3      5.2386999999999997      5.6255800000000002      21.400600000000001
   257   3     0.84087299999999998                 9.56874                 17.3752
   258   3      9.5443499999999997      5.5308299999999999                 17.4131
   259   3      5.0612300000000001      9.5316100000000006                 13.4815
   260   3      1.1780999999999999      5.8857799999999996      13.546799999999999
   261   3      9.2937100000000008      5.5833000000000004      13.527799999999999
   262   3      5.3181700000000003      9.5596899999999998      17.527899999999999
   263   3                 1.07433      9.6198300000000003                 13.4381
   264   3      9.4761600000000001      1.6481300000000001                 21.4925
   265   3      5.2794400000000001      9.5704999999999991      21.312000000000001
   266   3      1.1400600000000001      5.7050700000000001      21.193000000000001
   267   3      1.0336700000000001      5.7891000000000004                 17.4909
   268   3      9.6424599999999998                 1.75746                 17.4254
   269   3      9.3618500000000004      5.5336800000000004      20.944500000000001
   270   3      5.1902999999999997      1.6787300000000001      17.459099999999999
   271   1      4.8133999999999997      17.383800000000001      3.5112800000000002
   272   1      2.8727200000000002      21.254899999999999      9.4716799999999992
   273   1                  4.9897      21.469799999999999      7.6012199999999996
   274   1      4.8155000000000001      19.370699999999999      5.7728700000000002
   275   1      2.6372499999999999      21.272200000000002      5.4794900000000002
   276   1      4.8331499999999998                  21.285      3.8077399999999999
   277   1      4.9314499999999999                 19.3353      1.4946299999999999
   278   1      2.8699599999999998                 21.2822      1.8739399999999999
   279   1      4.7647000000000004      21.319199999999999                  23.192
   280   1      4.5903400000000003      15.467000000000001      9.6288099999999996
   281   1      2.8223500000000001                 17.5701      9.3980599999999992
   282   1      4.8229699999999998      17.136600000000001      7.5238800000000001
   283   1      5.1781699999999997                 15.5709      5.3571299999999997
   284   1      2.7178300000000002      17.614100000000001                 5.65055
   285   1      6.8966900000000004      21.270099999999999      9.5591799999999996
   286   1      4.9858500000000001      15.484400000000001      1.6819500000000001
   287   1      2.7445599999999999                  17.189                 1.61388
   288   1                 4.82219                 17.3901      23.284800000000001
   289   1                 4.91235                 11.5784      9.4580199999999994
   290   1      2.4659900000000001      13.319599999999999      9.4373500000000003
   291   1      4.7108400000000001      13.663399999999999      7.5661300000000002
   292   1      4.7081099999999996      11.876899999999999      5.7537099999999999
   293   1      4.9175800000000001      19.383500000000002      9.7029200000000007
   294   1      9.2438900000000004                 13.2523      23.157299999999999
   295   1                  7.1193                 13.4468                 1.79715
   296   1      9.0624699999999994      11.395799999999999      1.6630100000000001
   297   1      9.0545799999999996      21.474699999999999      7.5644299999999998
   298   1      9.0890500000000003      19.495699999999999      5.7051999999999996
   299   1      7.1223099999999997                 21.4438      5.4293100000000001
   300   1      9.1252899999999997      21.435600000000001      3.7955100000000002
   301   1      9.1475000000000009      19.308599999999998      1.7280800000000001
   302   1      6.9498300000000004                 21.2011                 1.83419
   303   1      9.2208199999999998      21.276199999999999   -0.070060899999999995
   304   1      9.2252200000000002      15.360200000000001      9.7849000000000004
   305   1      6.5562100000000001                 17.2941      9.4211500000000008
   306   1      8.7718100000000003      17.304500000000001      7.8019299999999996
   307   1                 2.62378      13.701000000000001      5.5905699999999996
   308   1      9.1684900000000003                 15.5275      5.7776399999999999
   309   1      9.0878599999999992                 17.2392      3.7979400000000001
   310   1      9.0758399999999995                 15.3887                 1.61886
   311   1      7.1459299999999999      17.372499999999999      1.4150499999999999
   312   1      9.3193400000000004      17.270700000000001               -0.123128
   313   1      8.9325600000000005                 11.5921      9.3839000000000006
   314   1                 6.93466      13.734999999999999      9.4196799999999996
   315   1      9.3878500000000003      13.439399999999999      7.7184900000000001
   316   1      9.0128400000000006                 11.7569      5.3242200000000004
   317   1      7.0685000000000002                 13.3795      5.8930600000000002
   318   1      9.2275700000000001                 13.7948      3.6357599999999999
   319   1      6.8722899999999996      17.360700000000001      5.9544199999999998
   320   1      4.9357199999999999                 13.4559      3.6740300000000001
   321   1      8.9811300000000003      19.249099999999999      9.7179699999999993
   322   1     0.61031400000000002                 21.1418                 3.65225
   323   1      23.948799999999999                 17.5075      5.5344499999999996
   324   1                0.474605      13.941700000000001      7.5636099999999997
   325   1                 23.8262      13.610799999999999      9.3026400000000002
   326   1                 0.47247                 11.3924      9.6610099999999992
   327   1                0.492672                 19.4404                 1.58108
   328   1                 24.1813      21.393000000000001                 1.51363
   329   1      24.036100000000001                 21.4331      5.9366300000000001
   330   1     0.79026700000000005      21.545500000000001      23.072299999999998
   331   1                 23.6845      17.425899999999999      2.1156100000000002
   332   1     0.66431200000000001                 15.5083      9.5977899999999998
   333   1     0.32624599999999998      15.394600000000001      1.6362699999999999
   334   1      23.816199999999998      17.471599999999999      9.5346899999999994
   335   1     0.43478600000000001      17.482099999999999      7.5701599999999996
   336   1     0.70146699999999995                 17.3736      3.5930599999999999
   337   1     0.58679999999999999                 17.1782      23.133400000000002
   338   1     0.57066899999999998                 19.3035      5.7248700000000001
   339   1     0.54152999999999996                 15.4941      5.4226200000000002
   340   1                 23.8963                 13.5207      5.6065699999999996
   341   1      5.1154700000000002      11.659800000000001      2.0481699999999998
   342   1     0.56876400000000005                 13.5641      3.7059700000000002
   343   1     0.61736000000000002      21.575800000000001      7.6622700000000004
   344   1      2.5494699999999999      13.540900000000001                  1.6751
   345   1      23.814900000000002      21.447900000000001      9.4584399999999995
   346   1      4.9789300000000001                 13.6449    -0.19714899999999999
   347   1     0.81059199999999998                 19.4145      9.5113199999999996
   348   1     0.70037499999999997                 11.6478                 5.78592
   349   1     0.50404700000000002      11.751200000000001                 1.43866
   350   1      23.697600000000001      13.911099999999999                 1.73319
   351   1     0.25970100000000002                 13.8346      23.178599999999999
   352   2      7.3306699999999996                 11.5649      3.7547600000000001
   353   2      24.214400000000001                 15.6561      3.7410000000000001
   354   2      7.2183099999999998      11.575100000000001      7.4647699999999997
   355   2      7.1197400000000002      19.107299999999999      7.9538799999999998
   356   2      7.4457599999999999                 15.2865                  23.244
   357   2      7.4372100000000003      19.522500000000001      3.5430299999999999
   358   2                -1.14737                 11.7377      3.9405899999999998
   359   2      7.5202099999999996                 15.4078      4.0055199999999997