tetra.lmp (written by ASE) 

8640 	 atoms 
3  atom types
0.0       50.85204296201546  xlo xhi
0.0      47.004134891866741  ylo yhi
0.0      46.986677632057081  zlo zhi


Atoms 

     1   1      4.1791900000000002                 5.45425      3.4466399999999999
     2   1      2.2603599999999999      9.5053599999999996      9.2827300000000008
     3   1      4.2160900000000003      9.7025000000000006      7.2485999999999997
     4   1      4.5216099999999999      7.2885600000000004      5.4660500000000001
     5   1      2.3968699999999998      9.0483899999999995      5.3449999999999998
     6   1      4.4992999999999999      9.2194400000000005      3.4363100000000002
     7   1      4.3941600000000003      7.3786100000000001      1.5005500000000001
     8   1      2.2709899999999998      9.2279999999999998      1.6197699999999999
     9   1      4.3096199999999998      9.2894100000000002    -0.36497600000000002
    10   1      4.4406999999999996      3.5382699999999998      9.3927899999999998
    11   1                 2.22004      5.8912300000000002      9.2654800000000002
    12   1      4.2081099999999996      5.5292000000000003      7.4203099999999997
    13   1      4.4737600000000004                 3.62052      5.5200399999999998
    14   1      2.1225299999999998      5.3832500000000003      5.3265799999999999
    15   1                 6.54711      9.3844600000000007      9.0660600000000002
    16   1      4.0831600000000003      3.4923799999999998      1.6355200000000001
    17   1      2.1786099999999999      5.5823700000000001      1.4498599999999999
    18   1      4.2526000000000002      5.5269899999999996      46.511200000000002
    19   1      4.2237099999999996      46.571300000000001      9.5586599999999997
    20   1                 2.37127                 1.59551      9.2003500000000003
    21   1      4.4488500000000002      1.4877100000000001      7.3120200000000004
    22   1      4.2609000000000004      46.460000000000001      5.7843400000000003
    23   1      4.3250099999999998      7.5072400000000004      9.3308599999999995
    24   1      8.5989599999999999      1.6357299999999999    -0.35380899999999998
    25   1      6.4161299999999999                 1.56101      1.7004600000000001
    26   1      8.6217500000000005      46.564300000000003      1.4673400000000001
    27   1      8.5844000000000005      9.1982499999999998      7.2183799999999998
    28   1      8.6928999999999998      7.2451100000000004      5.4330100000000003
    29   1      6.5525700000000002      9.3336699999999997      5.2678500000000001
    30   1      8.5106900000000003      9.4742099999999994                 3.36714
    31   1      8.4631500000000006                 7.15564      1.4408799999999999
    32   1      6.6529400000000001      9.4143500000000007                 1.49499
    33   1      8.7186900000000005      9.3305500000000006    -0.39000699999999999
    34   1      8.2122100000000007      3.4555500000000001      9.1057500000000005
    35   1      6.3650000000000002      5.5992600000000001      9.1841699999999999
    36   1      8.5223600000000008      5.1493599999999997      7.2717099999999997
    37   1      2.3870900000000002                 1.37778      5.7756299999999996
    38   1      8.7479399999999998      3.5522800000000001                 5.31996
    39   1      8.4526500000000002      5.2995700000000001                 3.47079
    40   1      8.7575099999999999                 3.38306                 1.63801
    41   1                 6.12202      5.3923699999999997                 1.40256
    42   1      8.5290300000000006      5.2558600000000002    -0.32639899999999999
    43   1      8.6628100000000003    -0.34908699999999998      9.7545900000000003
    44   1      6.4311600000000002      1.5051399999999999      9.6067900000000002
    45   1      8.6825299999999999      1.8742000000000001      7.2859400000000001
    46   1      8.5566600000000008    -0.33638699999999999                 5.56046
    47   1      6.5475000000000003      1.3733599999999999      5.5849599999999997
    48   1      8.8525899999999993      1.2878799999999999      3.5377800000000001
    49   1      6.4174300000000004      5.3883900000000002      5.4118899999999996
    50   1      4.3194100000000004                 1.48672      3.4645199999999998
    51   1      8.8863900000000005      7.1978499999999999      9.2676599999999993
    52   1     0.17219100000000001      9.4437800000000003      3.4368500000000002
    53   1                -1.90733      5.4297500000000003      5.2803599999999999
    54   1     0.14488000000000001                  1.2762      7.4704600000000001
    55   1                 -1.8606      1.8324800000000001                 9.66113
    56   1                0.244308    -0.33629399999999998      9.4027600000000007
    57   1    0.098497899999999999      7.3199800000000002      1.5206299999999999
    58   1     -1.9291700000000001      9.4644899999999996                 1.35802
    59   1                -1.95861      9.5467200000000005                 5.49946
    60   1     0.16366600000000001      9.4110999999999994      46.364800000000002
    61   1                -2.08921      5.4844400000000002      1.7692600000000001
    62   1     0.48141400000000001                 3.40246      9.3719599999999996
    63   1     0.34112300000000001                  3.4575      1.6732800000000001
    64   1     -1.8050200000000001                 5.17354      9.3329000000000004
    65   1     0.28439399999999998      5.2501499999999997      7.2878800000000004
    66   1     0.16445499999999999      5.6881899999999996      3.6183700000000001
    67   1    -0.15018000000000001      5.1323100000000004               -0.368419
    68   1   -0.054410699999999999      7.4405599999999996                 5.59659
    69   1                0.181087      3.3237700000000001      5.5248799999999996
    70   1     -1.9200200000000001      1.4319900000000001      5.2250699999999997
    71   1                 3.96549      46.510800000000003      1.2886899999999999
    72   1                 0.24881      1.2122299999999999      3.3872100000000001
    73   1     0.30621199999999998      9.4809599999999996      7.3576600000000001
    74   1      2.0915900000000001      1.6820900000000001                  1.5931
    75   1     -1.9779199999999999      9.3078900000000004      9.1005699999999994
    76   1      4.1131200000000003                 1.75813      46.538200000000003
    77   1    0.052456599999999999      7.4130799999999999      9.1803100000000004
    78   1    0.055387100000000002                 46.3917      5.5790600000000001
    79   1    0.037784600000000002                 46.4666                  1.1874
    80   1     -2.0816400000000002      1.3664000000000001      1.4711099999999999
    81   1     0.32023099999999999      1.6597299999999999      46.545400000000001
    82   2      5.9744000000000002      46.502400000000002                 3.31603
    83   2      48.441299999999998      3.5979999999999999      3.4144100000000002
    84   2      6.2067399999999999      46.470399999999998      7.3581000000000003
    85   2      6.1818200000000001      7.4698900000000004      7.4051200000000001
    86   2      5.7033699999999996      3.5870299999999999      46.506700000000002
    87   2      6.0013899999999998      7.4957599999999998                 3.74193
    88   2     -2.3191099999999998               -0.211339      3.2848299999999999
    89   2      5.7243599999999999                  3.6494                 3.60555
    90   2      5.8944700000000001      7.3163099999999996    -0.36872300000000002
    91   2      5.8194699999999999                 3.70695                 7.24749
    92   2                 48.3523                 46.5428      7.1978799999999996
    93   2      48.402299999999997      3.7758699999999998      46.513300000000001
    94   2                 48.2712      3.4629500000000002      7.5999499999999998
    95   2      48.244300000000003    -0.15934200000000001      46.363999999999997
    96   2                 1.97712                 3.63863      46.488199999999999
    97   2                 1.99864      3.1836099999999998      3.4371800000000001
    98   2                   1.903      46.273600000000002      3.2188400000000001
    99   2     -2.2837499999999999      7.0999699999999999      3.4646499999999998
   100   2      2.0213299999999998      7.5623500000000003    -0.30002499999999999
   101   2                 1.50844      7.6305500000000004      3.4771200000000002
   102   2                  1.8391      3.2984200000000001                 7.30532
   103   2                 1.80837                  46.366      46.242100000000001
   104   2                 48.4467      7.0194999999999999      7.1547900000000002
   105   2      1.7822499999999999      7.2492200000000002      7.2424099999999996
   106   2                 1.66778      46.438699999999997      7.1790900000000004
   107   2      5.7211699999999999      46.471699999999998    -0.35826400000000003
   108   2     -2.2591899999999998      7.5855899999999998      46.454700000000003
   109   3      8.4194200000000006      9.4798200000000001      5.3581099999999999
   110   3      3.8513999999999999      1.4811399999999999      1.4224399999999999
   111   3      3.9923999999999999      5.5399399999999996                 1.66384
   112   3      4.1230500000000001                 1.42425      9.3060299999999998
   113   3    -0.15068999999999999      1.3305400000000001      5.3671499999999996
   114   3    -0.23353599999999999      9.4336500000000001      9.0789600000000004
   115   3      8.3707899999999995      9.3552499999999998      9.2837099999999992
   116   3      8.4811499999999995      9.0222499999999997                 1.49031
   117   3    -0.25349100000000002                 1.38893                 1.19702
   118   3      3.8919600000000001      5.3935300000000002      5.4134099999999998
   119   3      8.1872500000000006      1.4630399999999999                 1.41208
   120   3    -0.13078400000000001      1.4785299999999999      9.2305200000000003
   121   3      3.9941300000000002      5.5186799999999998      9.1888199999999998
   122   3               -0.194079      9.3366699999999998      5.3952900000000001
   123   3      8.1594999999999995      5.2972099999999998      5.4235899999999999
   124   3      4.1906299999999996      9.4320699999999995                 1.61988
   125   3    -0.19227900000000001      5.3754600000000003      1.5535699999999999
   126   3      7.9856400000000001      5.3551299999999999                 1.54732
   127   3      4.0960799999999997      9.4671900000000004      5.3985200000000004
   128   3    -0.21138199999999999      9.5109200000000005      1.4063699999999999
   129   3      8.2326800000000002                 1.54836      9.6318300000000008
   130   3      4.0814000000000004      9.4567300000000003      9.2977799999999995
   131   3   -0.046346100000000001      5.4863299999999997      9.2856100000000001
   132   3    -0.13781299999999999      5.2631800000000002      5.3965100000000001
   133   3      8.2951899999999998                  1.5747      5.3516700000000004
   134   3      8.0786499999999997      5.3749799999999999      9.2216799999999992
   135   3      4.1849999999999996                 1.26885      5.4594699999999996
   136   1      4.0776700000000003      5.5038099999999996                 15.2029
   137   1                 2.43337      9.3145000000000007      21.436499999999999
   138   1      4.3671699999999998      9.3624399999999994      19.192299999999999
   139   1      4.3961899999999998      7.4265999999999996      17.318899999999999
   140   1                 2.36666      9.3993800000000007      17.224799999999998
   141   1      4.3718700000000004      9.6578300000000006                 15.1723
   142   1      4.1012700000000004      7.5775699999999997                 13.3085
   143   1      2.1559499999999998      9.5151699999999995                 13.3765
   144   1      4.5357799999999999      9.3248800000000003                 11.1737
   145   1      4.3216599999999996      3.5129000000000001      20.859000000000002
   146   1                 2.12168      5.2873400000000004      21.337599999999998
   147   1      4.1867999999999999      5.4306200000000002      19.133700000000001
   148   1      4.2250100000000002      3.4010799999999999                 17.3246
   149   1      2.2232500000000002      5.7183400000000004      17.244599999999998
   150   1      6.6410600000000004      9.3578100000000006      21.033200000000001
   151   1      4.5371499999999996                 3.46313      13.288500000000001
   152   1      2.1375799999999998      5.2677199999999997      13.198399999999999
   153   1      4.4180400000000004      5.4845499999999996      11.340299999999999
   154   1      4.3739699999999999    -0.37299300000000002      21.415700000000001
   155   1      2.2092299999999998      1.6819900000000001      21.247599999999998
   156   1                 4.34138      1.3501099999999999      19.254200000000001
   157   1      4.4723600000000001               -0.220274      17.183700000000002
   158   1      4.4410100000000003      7.4704100000000002      21.216799999999999
   159   1      8.5179500000000008      1.8425100000000001                 11.3645
   160   1      6.7402100000000003      1.3012900000000001                 13.4282
   161   1      8.7039100000000005    -0.38936599999999999                 13.1622
   162   1      8.7910400000000006      9.6000300000000003                 19.3413
   163   1      8.4651099999999992      7.5827900000000001      17.456700000000001
   164   1      6.4569299999999998      9.4577100000000005                 17.1496
   165   1      8.5323799999999999      9.2999399999999994                 15.2079
   166   1      8.5281900000000004      7.2270599999999998      13.305300000000001
   167   1      6.4074999999999998      9.1817299999999999                 13.3568
   168   1      8.5193499999999993      9.0869099999999996      11.391299999999999
   169   1      8.4707399999999993                 3.50285      21.355699999999999
   170   1      6.3111600000000001                 5.58819      21.239599999999999
   171   1      8.3603699999999996                 5.53674                 19.3264
   172   1                 2.20018      1.6116900000000001                 17.1328
   173   1      8.3897200000000005      3.6529199999999999      17.412299999999998
   174   1      8.4275599999999997      5.5823600000000004                 15.2356
   175   1      8.5371000000000006      3.6575600000000001                 13.4048
   176   1      6.3895799999999996      5.4579399999999998      13.559200000000001
   177   1      8.4483599999999992      5.1844999999999999      11.222799999999999
   178   1      8.3971499999999999    -0.41916500000000001      21.174600000000002
   179   1      6.4018899999999999                 2.05301      21.180900000000001
   180   1      8.3378700000000006                 1.70702      19.133199999999999
   181   1      8.6661000000000001    -0.19268099999999999      17.409400000000002
   182   1      6.1824599999999998                  1.6247      17.290500000000002
   183   1      8.6218599999999999                 1.58717                 15.2563
   184   1      6.2706099999999996      5.4156000000000004      17.213899999999999
   185   1      4.7720799999999999      1.7097899999999999                 15.1319
   186   1      8.5529600000000006      7.4015599999999999      21.224699999999999
   187   1   -0.032879199999999997      9.3398699999999995                 15.1556
   188   1                -1.97051      5.3840399999999997      17.195799999999998
   189   1     0.42410100000000001      1.6160600000000001      19.014399999999998
   190   1     -2.0030800000000002      1.5831599999999999      20.766400000000001
   191   1                0.177532                 46.4741      20.909500000000001
   192   1     0.13208400000000001      7.3258299999999998                 13.0794
   193   1     -2.0649799999999998      9.5625300000000006      13.220000000000001
   194   1     -2.0016699999999998      9.7782599999999995      16.968599999999999
   195   1               -0.204258      9.3325999999999993                 11.2239
   196   1                -1.83111                 5.52135                 13.3385
   197   1                0.197098      3.4187500000000002      21.048300000000001
   198   1     0.39756399999999997      3.4916200000000002      13.021100000000001
   199   1                -1.99265      5.5427999999999997                 20.9559
   200   1    0.038573000000000003      5.4602599999999999      19.297999999999998
   201   1     0.38247999999999999      5.5195999999999996                 15.3306
   202   1                0.125888      5.5774999999999997                 11.1957
   203   1     0.19509299999999999                 7.44421      17.334399999999999
   204   1                0.345198      3.6629900000000002      17.361599999999999
   205   1                -1.75658                 1.57846      17.221399999999999
   206   1      4.4214000000000002      46.398899999999998                 13.5694
   207   1     0.30700499999999997      1.5050699999999999      15.229699999999999
   208   1               -0.102174      9.3094199999999994      19.253900000000002
   209   1      2.4581400000000002      1.5180100000000001                 13.0814
   210   1                -1.94553      9.4502000000000006      21.200399999999998
   211   1      4.3532599999999997      1.1526000000000001      11.455500000000001
   212   1    0.094151299999999993      7.4203599999999996                 21.3871
   213   1     0.42572199999999999      46.569000000000003                 17.1691
   214   1     0.13689399999999999    -0.34564499999999998      13.349299999999999
   215   1     -1.8893800000000001      1.9872000000000001                 13.1143
   216   1     0.30630200000000002      1.7281899999999999      11.374499999999999
   217   2      6.0124199999999997                 46.3324                 15.2631
   218   2      48.380600000000001      3.4533999999999998                   15.48
   219   2                  6.0865                   46.43                 19.3977
   220   2      6.1878000000000002                 7.59619      19.276900000000001
   221   2      5.8742000000000001                 3.54251                 11.1302
   222   2      5.7907200000000003      7.4819800000000001      15.039400000000001
   223   2      48.442900000000002    -0.35021799999999997      15.277900000000001
   224   2      6.2535100000000003      3.6303200000000002                 14.9778
   225   2      6.0143199999999997      7.5122400000000003      11.215299999999999
   226   2      5.8591199999999999      3.4559799999999998      19.090299999999999
   227   2      48.331200000000003      46.462699999999998      19.210899999999999
   228   2     -2.1030899999999999                  3.6212                 11.4948
   229   2     -1.9681999999999999      3.5039199999999999      19.120200000000001
   230   2      48.262799999999999    -0.25592999999999999                 11.4445
   231   2      1.9023000000000001                 3.34734      11.187900000000001
   232   2      2.0995699999999999                 3.26356                 14.9504
   233   2      1.9775400000000001    -0.25463000000000002                 15.1625
   234   2     -2.2441900000000001      7.4248599999999998                 15.1974
   235   2                 1.81579      7.7030900000000004      11.148199999999999
   236   2                 1.91428      7.4157500000000001                 15.1258
   237   2      1.9201699999999999      3.7232699999999999                 19.4087
   238   2                 1.50485               -0.278001      11.505599999999999
   239   2     -2.1903600000000001      7.3860099999999997      18.972799999999999
   240   2                 1.64595      7.4377700000000004                 19.0443
   241   2                 2.14222    -0.25474799999999997      19.189499999999999
   242   2      6.0743999999999998      46.573500000000003                 11.5213
   243   2                -2.06616      7.2036899999999999      11.374000000000001
   244   3      8.1661199999999994      9.4981000000000009                  17.273
   245   3                 4.21577      1.2715099999999999      13.269500000000001
   246   3                 4.01769                 5.41465                 13.1934
   247   3      4.0378699999999998                 1.52885      21.034300000000002
   248   3                 0.20365                 1.81331      17.244599999999998
   249   3    -0.17515900000000001      9.5111799999999995                  21.064
   250   3      8.3466500000000003      9.5463799999999992                 21.2575
   251   3      8.1722300000000008      9.2309599999999996                 13.3874
   252   3    -0.23294599999999999      1.6375999999999999                 13.2072
   253   3                 3.96055      5.4875600000000002      17.289100000000001
   254   3      8.4827200000000005      1.4745200000000001                  13.359
   255   3               -0.199041      1.3793500000000001      21.034600000000001
   256   3      4.0588899999999999      5.4143699999999999      21.195699999999999
   257   3    -0.18119099999999999      9.4610900000000004      17.151800000000001
   258   3      8.1117299999999997                 5.65266      17.242999999999999
   259   3      3.9830999999999999      9.3484700000000007      13.250500000000001
   260   3               0.0942297      5.5030599999999996                  13.315
   261   3      8.1333500000000001      5.4774700000000003                 13.3057
   262   3      4.0319399999999996      9.3939000000000004      17.191099999999999
   263   3    -0.30840299999999998      9.5747300000000006                  13.202
   264   3      8.1783800000000006      1.6736500000000001      21.145299999999999
   265   3      4.2268600000000003      9.4265699999999999      21.102499999999999
   266   3    -0.23919799999999999      5.5713900000000001      21.119199999999999
   267   3              -0.0281835      5.4904900000000003      17.174199999999999
   268   3      7.9306299999999998                 1.63913      17.245699999999999
   269   3      8.1167400000000001                 5.56745      21.205100000000002
   270   3                 4.15639                 1.49838      17.006799999999998
   271   1      4.4947100000000004      5.5068299999999999      26.903199999999998
   272   1      2.1962299999999999                 9.51905                 32.9422
   273   1      4.1120599999999996      9.5280699999999996                 31.0397
   274   1      4.4472399999999999      7.4755900000000004      29.136700000000001
   275   1                 2.25495                 9.44618                 28.9544
   276   1      4.3533099999999996      9.1634200000000003                 27.1265
   277   1      4.5051899999999998      7.4489700000000001                 24.8781
   278   1      2.5728200000000001      9.3926400000000001      24.843900000000001
   279   1      4.6607900000000004      9.4411299999999994      22.985800000000001
   280   1                 4.21854      3.4269699999999998      33.035499999999999
   281   1      2.1816800000000001      5.3555599999999997      32.736600000000003
   282   1      4.5082599999999999      5.3409899999999997                  30.936
   283   1      4.4944899999999999      3.4246500000000002                 28.6266
   284   1      2.5512100000000002      5.6270300000000004      29.020900000000001
   285   1      6.6906100000000004      9.3975299999999997      32.914499999999997
   286   1      4.3273099999999998      3.5140500000000001                 25.2943
   287   1                 2.34552      5.4537399999999998      25.159700000000001
   288   1      4.3609499999999999      5.1885300000000001                 23.0303
   289   1      4.6398200000000003    -0.32178600000000002                 32.8429
   290   1      2.3385500000000001                 1.25583      33.130499999999998
   291   1      4.1072100000000002                 1.81907      30.849799999999998
   292   1      4.5894899999999996      46.572299999999998      29.104700000000001
   293   1      4.2402100000000003      7.5223399999999998                  32.881
   294   1      8.5671900000000001      1.4724699999999999      23.000599999999999
   295   1                  6.4234                 1.47217      25.080400000000001
   296   1      8.4431100000000008      46.504100000000001      24.858499999999999
   297   1      8.7466899999999992      9.4467099999999995      30.963999999999999
   298   1      8.3009599999999999      7.5528199999999996                  29.029
   299   1      6.3556699999999999      9.6443399999999997      28.824400000000001
   300   1      8.9384499999999996      9.3320000000000007      26.945799999999998
   301   1      8.6184600000000007      7.5202900000000001      25.136600000000001
   302   1      6.7302099999999996      9.3185599999999997      25.072099999999999
   303   1      8.6934000000000005      9.4906000000000006      23.066800000000001
   304   1      8.6746099999999995      3.4835199999999999      33.165500000000002
   305   1      6.5456500000000002      5.6169399999999996      33.158700000000003
   306   1      8.5628299999999999      5.4214200000000003      31.080300000000001
   307   1                 2.10372                 1.55959      29.175599999999999
   308   1      8.6406799999999997      3.5628899999999999                 29.0562
   309   1      8.5685300000000009      5.6176899999999996                 26.9544
   310   1      8.3580000000000005      3.5800900000000002                 24.9633
   311   1      6.3739999999999997      5.4717000000000002                 25.0684
   312   1      8.4840300000000006      5.4439000000000002                 23.0396
   313   1      8.3859600000000007    -0.40644999999999998      32.829000000000001
   314   1      6.5097699999999996                 1.71174                 32.8992
   315   1      8.7158099999999994                  1.6032                 31.0273
   316   1      8.5174699999999994      46.554299999999998      29.093399999999999
   317   1      6.5393100000000004                 1.48441      29.125399999999999
   318   1      8.6589399999999994      1.6014699999999999      27.077500000000001
   319   1      6.6032200000000003      5.5036100000000001      28.956700000000001
   320   1      4.1955400000000003      1.2715399999999999      26.921900000000001
   321   1      8.6615000000000002      7.4115900000000003      33.021099999999997
   322   1   -0.023364699999999999      9.2750699999999995                 26.9801
   323   1                -2.00536      5.5055899999999998                 28.9529
   324   1     0.14719399999999999                 1.63819      30.969999999999999
   325   1     -1.9014599999999999                 1.49753      32.763500000000001
   326   1               0.0453309                 46.5456      32.806800000000003
   327   1                0.214892      7.5389699999999999      25.017299999999999
   328   1     -1.9883599999999999      9.2871799999999993      24.914200000000001
   329   1                -1.84148      9.1588799999999999      28.825399999999998
   330   1                0.204262      9.4011999999999993                 23.0562
   331   1     -2.0952899999999999                 5.25122      25.093800000000002
   332   1     0.32666699999999999      3.4004300000000001      33.016599999999997
   333   1    0.027508500000000002      3.4513500000000001      25.027999999999999
   334   1                -1.99413      5.2190300000000001                 33.0381
   335   1     0.34860200000000002      5.1015499999999996      30.941400000000002
   336   1                0.181422      5.6414099999999996      27.004999999999999
   337   1   -0.042045899999999997                 5.46373      23.085599999999999
   338   1     0.22394900000000001      7.2806199999999999      28.857800000000001
   339   1     0.13280500000000001      3.5792299999999999      28.884799999999998
   340   1     -1.9843500000000001      1.4514199999999999      29.008600000000001
   341   1      4.4813900000000002      46.565199999999997      24.698499999999999
   342   1   -0.079189399999999993                 1.42597      26.868400000000001
   343   1                0.234148      9.3913899999999995                 30.8567
   344   1                 2.30633      1.4978400000000001      24.921299999999999
   345   1     -2.1400899999999998      9.3103200000000008      32.760599999999997
   346   1      4.4286000000000003      1.9025799999999999      23.214400000000001
   347   1    -0.19456499999999999      7.4670500000000004      33.000300000000003
   348   1                 0.20487               -0.297877      28.744900000000001
   349   1     0.32324900000000001      46.437600000000003      24.890999999999998
   350   1     -1.9506399999999999                 1.48272      24.812100000000001
   351   1    -0.14498800000000001                 1.08687                 22.9956
   352   2      5.9285699999999997               -0.277889      27.132899999999999
   353   2      48.184600000000003      3.5024700000000002      26.973199999999999
   354   2      6.2408700000000001    -0.27496799999999999      30.830400000000001
   355   2      5.8047899999999997      7.5512600000000001                 31.0181
   356   2      6.0962800000000001      3.4418899999999999      23.093900000000001
   357   2      5.9058200000000003      7.3724699999999999                 26.8261
   358   2     -2.1591200000000002      46.494599999999998      27.296299999999999
   359   2      6.1707299999999998      3.6747899999999998      26.816700000000001