tetra.lmp (written by ASE) 

16875 	 atoms 
3  atom types
0.0      63.811668663294661  xlo xhi
0.0      58.684058689926161  ylo yhi
0.0      58.613620911436371  zlo zhi


Atoms 

     1   1      3.8456999999999999      5.3686400000000001      3.3502999999999998
     2   1      1.7021999999999999      9.1093899999999994      9.1721500000000002
     3   1                 3.97879      9.1986399999999993      7.4056199999999999
     4   1      3.7857799999999999      7.3081300000000002      5.3135300000000001
     5   1                 1.66835      9.2751999999999999      5.2247700000000004
     6   1      3.9446699999999999      9.1806800000000006      3.3766099999999999
     7   1                 3.98733      7.3510299999999997                 1.44479
     8   1      1.8545400000000001      9.3111599999999992                  1.4699
     9   1      3.8101099999999999      9.3869699999999998                 58.0608
    10   1                 3.84389      3.5728300000000002      9.2153600000000004
    11   1      1.8075300000000001      5.3464200000000002                 9.27989
    12   1      4.0766099999999996      5.6051299999999999      7.3045499999999999
    13   1      4.0460200000000004      3.3136399999999999                 5.29291
    14   1                 1.92523      5.1156899999999998      5.4247300000000003
    15   1                 5.99207      9.3100799999999992      9.3132000000000001
    16   1      3.7702499999999999                 3.50231                 1.66055
    17   1      1.6879200000000001      5.4300100000000002                 1.47149
    18   1                 4.03634      5.4324500000000002      58.150500000000001
    19   1      3.7233399999999999    -0.45069799999999999      9.1671700000000005
    20   1                 1.63826                 1.73088      8.8893000000000004
    21   1      4.0228999999999999      1.5672999999999999      7.4146000000000001
    22   1      3.8878699999999999      58.132899999999999      5.4400300000000001
    23   1      3.7749700000000002      7.3594099999999996      9.5453100000000006
    24   1      8.2380700000000004      1.4806699999999999      58.160499999999999
    25   1                 5.83744                 1.68974                 1.42536
    26   1      7.9995900000000004    -0.44062200000000001                 1.58944
    27   1      7.9731899999999998      9.0258500000000002      7.3428399999999998
    28   1      8.1041699999999999      7.3451199999999996      5.3669099999999998
    29   1      6.1132099999999996      9.2760700000000007      5.4451200000000002
    30   1      8.0656099999999995      9.4261300000000006      3.2400799999999998
    31   1      8.1329399999999996      7.3610600000000002      1.6228499999999999
    32   1      5.9256599999999997      9.3344100000000001      1.3395900000000001
    33   1      7.9880800000000001                  9.3087      58.040300000000002
    34   1      7.8213699999999999      3.4912100000000001      9.2136499999999995
    35   1      5.8190400000000002      5.5037099999999999      9.1355699999999995
    36   1      8.1355699999999995      5.3361900000000002      7.3380700000000001
    37   1                 1.88798                 1.41709      5.5627000000000004
    38   1      8.0253300000000003                 3.49166      5.4449800000000002
    39   1      8.3529900000000001      5.4323300000000003      3.3915299999999999
    40   1      8.1541300000000003      3.2863500000000001                 1.56837
    41   1      6.1482599999999996      5.3842800000000004                 1.26536
    42   1      8.3540500000000009      5.3806200000000004      58.151499999999999
    43   1      8.0589700000000004      57.927999999999997      9.3366600000000002
    44   1      6.0312999999999999      1.4553199999999999      9.5222700000000007
    45   1      7.9912299999999998      1.4382900000000001      7.1845800000000004
    46   1                 8.23658                 58.0732      5.2295100000000003
    47   1      5.9756999999999998                 1.24082      5.4272999999999998
    48   1                 7.89499                 1.43723      3.3782399999999999
    49   1      5.8734999999999999                 5.42239      5.4331199999999997
    50   1                 3.57145      1.7036899999999999      3.4123899999999998
    51   1      8.1670700000000007      7.1092899999999997      9.1944199999999991
    52   1    -0.33744000000000002      9.3162400000000005      3.2997299999999998
    53   1     -2.6842000000000001      5.0997500000000002      5.2856399999999999
    54   1    -0.75886799999999999                 1.04772      7.5376300000000001
    55   1     -2.8772799999999998      1.5444199999999999      9.3200699999999994
    56   1    -0.88700599999999996    -0.53569299999999997      9.8223699999999994
    57   1  -0.0061023300000000004      7.2662399999999998                 1.43092
    58   1     -2.5108199999999998      8.9873700000000003                 1.48308
    59   1     -2.6878899999999999      9.3657400000000006      5.3151200000000003
    60   1    -0.71017399999999997                 8.86538    -0.52614799999999995
    61   1     -2.4056999999999999                 5.75502                 1.52359
    62   1    -0.54408199999999995      3.3044699999999998      9.0221300000000006
    63   1    -0.75845399999999996                 3.47106                 1.47556
    64   1                -2.37317      5.3159599999999996      9.7634299999999996
    65   1               -0.688087                 5.33127      7.1235499999999998
    66   1    -0.41249599999999997      5.1171100000000003      3.5591499999999998
    67   1    -0.55836600000000003      5.1958799999999998    -0.34444900000000001
    68   1               -0.459152      7.2295600000000002      5.2357300000000002
    69   1    -0.42138399999999998      3.2679999999999998      5.5671600000000003
    70   1     -2.6944400000000002      1.4235800000000001      5.4387800000000004
    71   1      3.9621599999999999               -0.338528      1.5196099999999999
    72   1    -0.33150499999999999      1.4657100000000001      3.6136300000000001
    73   1    -0.51757600000000004      9.1187299999999993      7.2561299999999997
    74   1                 1.57599                 1.46289      1.3764099999999999
    75   1     -2.5082900000000001      8.8800100000000004      9.1044300000000007
    76   1      3.5816699999999999                 1.79138    -0.46290500000000001
    77   1               -0.245341      7.1448400000000003      9.2777499999999993
    78   1               -0.445442    -0.43671599999999999      5.2747000000000002
    79   1    -0.20136799999999999      58.224299999999999                 1.52267
    80   1     -2.5003299999999999      1.2018899999999999      1.5954900000000001
    81   1    -0.58875599999999995                 1.35859      58.191000000000003
    82   2      5.3972499999999997    -0.47163300000000002                 3.46027
    83   2     -2.9362200000000001      3.3298999999999999                 3.26742
    84   2      5.5116199999999997      58.076700000000002      7.2980700000000001
    85   2      5.5559000000000003      7.2394100000000003      7.3062300000000002
    86   2      5.5080799999999996      3.4521899999999999      58.012700000000002
    87   2                  5.3994      7.4009600000000004      3.4302199999999998
    88   2                 60.7682    -0.49901499999999999      3.4855100000000001
    89   2      5.5193199999999996                 3.64073                 3.18093
    90   2      5.6034300000000004      7.3068799999999996                 58.1126
    91   2      5.8330200000000003      3.4771299999999998      7.3646099999999999
    92   2                  60.631                -0.34425      7.5880799999999997
    93   2      60.666499999999999      3.5188899999999999    -0.31235200000000002
    94   2      60.577599999999997      3.4979300000000002      7.1627700000000001
    95   2     -2.9948700000000001      58.128300000000003                -0.18309
    96   2                 1.14717      3.2316699999999998      58.027200000000001
    97   2                 1.52911      3.1427399999999999      3.4758200000000001
    98   2                 1.21499    -0.40098899999999998                 3.37819
    99   2      60.476100000000002      7.2986800000000001                 3.30782
   100   2      1.3171600000000001                 7.12737    -0.42253600000000002
   101   2      1.2723500000000001      7.0591400000000002      3.2961999999999998
   102   2      1.4446699999999999      3.5059499999999999      6.9781599999999999
   103   2                 1.60406      58.174300000000002               -0.218056
   104   2                 60.6873      7.1866599999999998                 7.32334
   105   2      1.0871999999999999      7.1554900000000004      7.1048600000000004
   106   2                  1.2356    -0.34787200000000001      7.6008199999999997
   107   2      5.5590700000000002      57.936700000000002    -0.25114700000000001
   108   2      60.555599999999998      7.4337299999999997      58.110199999999999
   109   3      7.8617400000000002      9.2630999999999997                 5.49695
   110   3                 3.42204      1.5888599999999999                 1.37774
   111   3      3.5162200000000001      5.3617600000000003                 1.43204
   112   3                 3.45621                 1.70882      9.1554000000000002
   113   3    -0.96992400000000001      1.3584799999999999      5.6019899999999998
   114   3    -0.67052299999999998      9.0943100000000001      9.0402299999999993
   115   3      7.8220700000000001      9.3710000000000004      9.1846099999999993
   116   3      7.6806099999999997      9.4614799999999999      1.4248799999999999
   117   3               -0.703847      1.4078900000000001      1.4672700000000001
   118   3      3.6674500000000001      5.5647200000000003                  5.4093
   119   3      7.6474500000000001                  1.5749      1.5803199999999999
   120   3     -1.1077399999999999      1.5675699999999999      9.3479899999999994
   121   3                 3.59998      5.4944600000000001      9.3063599999999997
   122   3               -0.943137      9.3725500000000004      5.2027799999999997
   123   3      7.7173699999999998      5.5781299999999998      5.3464999999999998
   124   3      3.5064000000000002      9.4344199999999994      1.5980799999999999
   125   3    -0.66205199999999997      5.3501899999999996      1.4362699999999999
   126   3      7.8929900000000002      5.5474800000000002                 1.38357
   127   3      3.3992100000000001      9.3016000000000005      5.3400600000000003
   128   3    -0.67952299999999999      9.1931799999999999                  1.5648
   129   3      7.8022799999999997      1.4895700000000001      9.3823000000000008
   130   3      3.5121899999999999      9.0414700000000003      9.2467000000000006
   131   3    -0.64070899999999997      5.1425999999999998      9.3142099999999992
   132   3    -0.89504600000000001      5.2656700000000001      5.2953900000000003
   133   3      7.7179200000000003                 1.62662      5.3045099999999996
   134   3      7.6741999999999999                 5.33711      9.3456600000000005
   135   3      3.6029800000000001      1.5007699999999999      5.4164099999999999
   136   1                 3.69062      5.6122800000000002      15.402799999999999
   137   1      1.5059499999999999      9.0004799999999996      21.022300000000001
   138   1                 3.72153      9.3422599999999996      18.945599999999999
   139   1      4.0358900000000002      7.2755299999999998      17.251200000000001
   140   1                 1.69886      9.2831100000000006      16.988399999999999
   141   1      3.7352599999999998      9.2937999999999992      15.183299999999999
   142   1      3.6176599999999999      7.2315199999999997                 13.1877
   143   1      1.7395799999999999      9.1696500000000007      13.482900000000001
   144   1      3.5921799999999999      9.2843599999999995                 11.2349
   145   1      3.6334300000000002      3.3408099999999998      21.042300000000001
   146   1      1.4239299999999999      5.1275500000000003      21.146999999999998
   147   1      3.6465100000000001      5.0090000000000003      19.149100000000001
   148   1      3.8410199999999999      3.4757899999999999      17.116800000000001
   149   1                 1.62114      5.5289200000000003      17.191600000000001
   150   1      5.4987300000000001      9.4392800000000001      21.099699999999999
   151   1      3.7176900000000002                 3.40083                 13.4163
   152   1      1.4954099999999999      5.3314199999999996                 13.6015
   153   1      3.8254299999999999                 5.34483                 11.3125
   154   1      3.5542099999999999    -0.46831499999999998      21.156600000000001
   155   1      1.4619899999999999      1.6336299999999999      21.062100000000001
   156   1                  3.5545                 1.46068                 19.0242
   157   1      3.5527199999999999    -0.39645000000000002      17.091699999999999
   158   1                  3.4293      7.1347699999999996      20.966999999999999
   159   1      8.1595800000000001      1.6214500000000001      11.138400000000001
   160   1      5.7853399999999997      1.3787700000000001                 13.1562
   161   1      7.9720300000000002    -0.47327000000000002                 13.0845
   162   1      7.4757600000000002      9.1888100000000001                 19.1343
   163   1      8.1310900000000004      7.2504600000000003                 17.1294
   164   1      5.8558899999999996      9.2947199999999999      17.138100000000001
   165   1      8.1399399999999993      9.1976099999999992      15.132899999999999
   166   1      8.0540199999999995      7.3471900000000003                 13.1501
   167   1      5.9561099999999998      9.0802600000000009      13.007199999999999
   168   1      8.1021000000000001      9.2890999999999995      11.163399999999999
   169   1      8.0008099999999995      3.4859399999999998      21.199100000000001
   170   1      5.7525700000000004      5.3125799999999996      21.569400000000002
   171   1      7.7522599999999997      5.5420199999999999      19.176100000000002
   172   1      1.5273399999999999                 1.59263      17.406600000000001
   173   1      8.1576900000000006      3.2478099999999999      17.217099999999999
   174   1      8.0888899999999992      5.3227399999999996                  15.205
   175   1      7.8767199999999997      3.2586900000000001                  13.199
   176   1      5.8440000000000003      5.4340799999999998                 13.3713
   177   1      7.8532099999999998      5.1694199999999997      11.271800000000001
   178   1      8.1306899999999995      58.088900000000002      20.924399999999999
   179   1      5.9510500000000004      1.4595100000000001                 20.9072
   180   1      7.7123299999999997                 1.45946      19.128900000000002
   181   1      8.1816399999999998      58.277299999999997      17.216100000000001
   182   1      5.7404999999999999                 1.61724      17.117799999999999
   183   1      7.7730600000000001      1.4502600000000001      15.264799999999999
   184   1      5.9958900000000002      5.2326100000000002      16.993200000000002
   185   1                 3.56962                 1.54664                 15.0611
   186   1      7.8362100000000003      7.4281699999999997      21.065899999999999
   187   1    -0.55432599999999999                 9.20289                 15.3188
   188   1     -2.9179900000000001      5.3879700000000001      17.137699999999999
   189   1    -0.74296700000000004      1.1990000000000001      19.261299999999999
   190   1     -2.6365699999999999                  1.5044                 21.2136
   191   1    -0.46001199999999998      58.013399999999997                 21.1952
   192   1    -0.70217700000000005      7.2621700000000002                  13.289
   193   1     -2.6790799999999999      9.5671300000000006      13.114100000000001
   194   1      60.763100000000001      9.2746700000000004      17.221699999999998
   195   1    -0.38609700000000002      9.1792200000000008      11.381399999999999
   196   1     -2.5234700000000001      5.3144900000000002                 13.0745
   197   1    -0.54822499999999996      3.3351600000000001                 21.3567
   198   1    -0.63157099999999999                 3.41669                 13.3658
   199   1     -2.8020700000000001      5.5278200000000002                 21.0594
   200   1    -0.66127800000000003      5.2253499999999997      19.202500000000001
   201   1    -0.66240600000000005      5.2002100000000002                 15.3423
   202   1    -0.31064199999999997      4.9823300000000001                 11.2921
   203   1    -0.87775700000000001      7.2555500000000004                 17.2745
   204   1    -0.84513400000000005      3.4467400000000001      17.418600000000001
   205   1     -2.7402899999999999                 1.60456                 17.1632
   206   1      3.6505200000000002    -0.35728399999999999      13.119899999999999
   207   1    -0.46990399999999999      1.5912500000000001      15.384399999999999
   208   1    -0.56428199999999995                 9.05152      19.055499999999999
   209   1                 1.59832                 1.56908                 13.0724
   210   1     -2.7363499999999998      9.1443100000000008      21.106400000000001
   211   1      3.6429100000000001                 1.64059                 11.1883
   212   1               -0.664045                 7.32803                 21.0549
   213   1    -0.45891399999999999    -0.51728399999999997      17.226600000000001
   214   1                -0.47153    -0.37809399999999999                 13.2234
   215   1     -2.6937099999999998                 1.56114      13.053800000000001
   216   1    -0.55572299999999997                 1.72224      11.149800000000001
   217   2                 5.08847    -0.32166299999999998                 15.2399
   218   2     -2.9519700000000002                 3.59721      15.036799999999999
   219   2      5.1006799999999997    -0.38065199999999999      19.111799999999999
   220   2      5.6539200000000003      7.5249300000000003      19.078499999999998
   221   2      5.5061099999999996      3.5336400000000001                 11.2982
   222   2      5.5320600000000004      7.1908000000000003      15.347099999999999
   223   2      60.589100000000002      58.068100000000001      15.180099999999999
   224   2      5.3082000000000003                 3.10941      15.215400000000001
   225   2      5.9245999999999999      7.1508900000000004                 11.2921
   226   2      5.4907199999999996      3.4286699999999999      18.880700000000001
   227   2      60.627800000000001               -0.405588      19.534800000000001
   228   2     -2.9108399999999999      3.4416500000000001                 11.2226
   229   2                 60.5197      3.2458900000000002      19.121500000000001
   230   2     -2.9282599999999999      58.043999999999997                 11.6896
   231   2      1.2736499999999999      3.1442600000000001                 11.1655
   232   2      1.3053600000000001      3.5676700000000001                 15.1968
   233   2      1.0174399999999999      58.125399999999999                 15.2254
   234   2      60.710299999999997      7.4555999999999996      15.097200000000001
   235   2                 1.47621      7.3415699999999999      11.101000000000001
   236   2                  1.1024                  7.3163                  15.403
   237   2      1.0123500000000001                 3.28938      19.067900000000002
   238   2      1.0745100000000001    -0.48768699999999998      11.111599999999999
   239   2      60.405700000000003      7.3527699999999996                 19.2014
   240   2      1.0664899999999999      6.9872399999999999      18.994700000000002
   241   2                   1.022               -0.432703                 19.3886
   242   2      5.3307399999999996    -0.13169400000000001      11.248900000000001
   243   2     -2.7309600000000001                 7.46244      11.265700000000001
   244   3      7.6575899999999999      9.4485499999999991      17.092400000000001
   245   3      3.3681199999999998                 1.53535                 13.1822
   246   3      3.3710300000000002      5.4547299999999996                 13.2653
   247   3      3.2099099999999998                 1.40035      21.306999999999999
   248   3                 -1.0403                  1.4581      17.145600000000002
   249   3    -0.90357200000000004      9.1663599999999992      21.063800000000001
   250   3      7.3709600000000002      9.2433499999999995      21.150200000000002
   251   3      7.6663699999999997      9.2761099999999992                 13.2333
   252   3    -0.73930799999999997                 1.54644                 13.0573
   253   3      3.5369000000000002      5.4108200000000002      17.188300000000002
   254   3                 7.67211      1.3917900000000001      13.386699999999999
   255   3    -0.82289599999999996      1.4860500000000001                 21.2027
   256   3      3.1309100000000001      5.1330799999999996                 20.9651
   257   3                 -1.3143      9.1037300000000005      17.330400000000001
   258   3      7.7722699999999998      5.2491300000000001      17.366399999999999
   259   3      3.5626600000000002      9.2197200000000006      13.272600000000001
   260   3    -0.67852000000000001      5.3513799999999998      13.174300000000001
   261   3      7.6580500000000002      5.3912500000000003      13.273300000000001
   262   3      3.5632299999999999      9.2374600000000004      17.144300000000001
   263   3    -0.77107099999999995      9.3574099999999998      13.190799999999999
   264   3      7.7372300000000003      1.4694499999999999      20.973199999999999
   265   3      3.3211599999999999      9.0994200000000003      20.934699999999999
   266   3                -1.08029                 5.38992                 21.0869
   267   3     -1.0892900000000001      5.2767799999999996      17.203099999999999
   268   3      7.6798099999999998      1.3359300000000001      17.210699999999999
   269   3      7.5407299999999999      5.4041800000000002      21.204599999999999
   270   3                 3.31853                 1.51125      17.267700000000001
   271   1                 3.84118      5.0858600000000003                 26.7712
   272   1      1.4323399999999999      9.1739899999999999      32.909399999999998
   273   1      3.6064799999999999      9.1268399999999996      30.959499999999998
   274   1      3.5034200000000002      7.1253500000000001      28.833300000000001
   275   1                 1.41998                 9.14255      28.967199999999998
   276   1      3.4173499999999999      9.3387799999999999      26.889600000000002
   277   1      3.6392600000000002      7.2472000000000003      24.999099999999999
   278   1                 1.39812      9.1995699999999996                 25.0229
   279   1      3.6129899999999999      9.2994699999999995      22.975899999999999
   280   1      3.4322900000000001      3.3670100000000001      32.822800000000001
   281   1                 1.26034      5.4538099999999998      32.973799999999997
   282   1      3.3164400000000001      5.3673000000000002      30.882999999999999
   283   1      3.7052100000000001      3.1844399999999999      28.883299999999998
   284   1      1.3763700000000001      5.2258300000000002      28.764900000000001
   285   1                  5.6151      9.3134399999999999      32.971499999999999
   286   1      3.7471000000000001                   3.202                 24.7105
   287   1      1.5865800000000001      5.2081900000000001      25.304500000000001
   288   1      3.4049900000000002      5.5399500000000002      23.025600000000001
   289   1      3.4698799999999999      58.207700000000003      32.585000000000001
   290   1                 1.36409                 1.47045      32.873199999999997
   291   1      3.5382500000000001      1.5470200000000001                 30.8626
   292   1      3.7391399999999999    -0.51669600000000004      28.770700000000001
   293   1      3.3801199999999998      7.1468800000000003      33.017000000000003
   294   1      7.9244300000000001      1.8468599999999999      22.979900000000001
   295   1      5.9612299999999996                 1.47404                 25.0136
   296   1      7.8408100000000003                 58.1783      24.795999999999999
   297   1      7.6217600000000001      9.2420200000000001                 30.9361
   298   1      8.0213099999999997      7.3787200000000004      28.870200000000001
   299   1      5.7400200000000003      8.7734000000000005      28.913599999999999
   300   1      7.8467099999999999      9.2152700000000003      26.723400000000002
   301   1      8.0927000000000007      7.2996699999999999      24.934899999999999
   302   1      5.5764899999999997      9.1345600000000005      25.003799999999998
   303   1      7.8516399999999997      8.9363899999999994      22.960999999999999
   304   1      7.7831299999999999      3.2929400000000002      32.726599999999998
   305   1      5.8268300000000002      5.4044699999999999      32.868000000000002
   306   1      7.7653699999999999      5.4742100000000002      30.829799999999999
   307   1                 1.54637      1.5295799999999999      28.867799999999999
   308   1      7.7419000000000002                 3.39344      28.844100000000001
   309   1      7.7210999999999999      5.4252599999999997      27.134599999999999
   310   1      7.8243600000000004      3.3818000000000001      25.197800000000001
   311   1      5.8523800000000001      5.6225800000000001      24.878399999999999
   312   1      7.9563100000000002      5.2647000000000004      23.052099999999999
   313   1      7.9659500000000003    -0.53864000000000001      32.926600000000001
   314   1      5.6445699999999999      1.1300399999999999      32.722099999999998
   315   1      7.6806200000000002                 1.31874      30.714200000000002
   316   1      7.6419100000000002    -0.53935599999999995      29.033000000000001
   317   1                 5.65733      1.5640499999999999                 29.0716
   318   1                 7.83758      1.2886500000000001      26.918199999999999
   319   1      5.5735799999999998                 5.31609      29.058700000000002
   320   1                 3.66255      1.5684400000000001      26.877800000000001
   321   1      7.8589900000000004      7.2745800000000003      32.922400000000003
   322   1    -0.73562300000000003      9.3094000000000001                 26.8794
   323   1     -2.7049799999999999      5.4033499999999997      28.720800000000001
   324   1               -0.313996      1.5906100000000001      30.785499999999999
   325   1                -2.31453                 1.34615      33.161999999999999
   326   1    -0.61248199999999997      58.031500000000001      32.671199999999999
   327   1    -0.88377700000000003      7.3839600000000001      24.685199999999998
   328   1     -2.8406799999999999      9.3355700000000006                 24.9541
   329   1     -2.6721699999999999      9.0104699999999998      29.195399999999999
   330   1               -0.457121      9.2956199999999995                 22.9253
   331   1     -2.8132299999999999      5.0458699999999999      24.908200000000001
   332   1    -0.46042300000000003                 3.38917      32.894799999999996
   333   1    -0.34037400000000001      3.3434599999999999      24.752300000000002
   334   1     -2.5253999999999999                  5.2542      32.860799999999998
   335   1               -0.381631                 5.58453      30.857099999999999
   336   1    -0.69063799999999997      5.3750499999999999      26.828199999999999
   337   1    -0.68953600000000004      5.4219799999999996      23.003699999999998
   338   1    -0.70754799999999995      7.3658799999999998      28.682099999999998
   339   1    -0.59646100000000002      3.5546199999999999      28.812799999999999
   340   1     -2.5444599999999999      1.6325700000000001                 28.8124
   341   1                 3.71529      57.947899999999997      25.031400000000001
   342   1    -0.56348799999999999      1.3106500000000001                 26.8218
   343   1    -0.44028499999999998      9.1331600000000002      30.787299999999998
   344   1                 1.66282                 1.07064      24.756399999999999
   345   1     -2.6714199999999999      9.0733899999999998      32.729700000000001
   346   1      4.2203499999999998      1.3660399999999999      23.028600000000001
   347   1    -0.69702600000000003      7.2014300000000002      33.185099999999998
   348   1    -0.62903299999999995                 58.0822      28.951899999999998
   349   1    -0.77105299999999999                 58.0167      25.075600000000001
   350   1     -2.6595399999999998      1.3906799999999999      24.863099999999999
   351   1    -0.62497199999999997     0.91339499999999996      23.072900000000001
   352   2                 5.56447    -0.46267200000000003      26.743099999999998
   353   2                 60.6875      3.2765900000000001      27.100200000000001
   354   2      5.6082900000000002    -0.27564899999999998                  30.779
   355   2      5.2099200000000003      7.2635500000000004      30.828600000000002
   356   2      5.6500899999999996                  3.1692      23.249099999999999
   357   2      5.1033099999999996      7.1179199999999998      26.851600000000001
   358   2      60.694600000000001                 58.1738      26.968499999999999
   359   2      5.4217300000000002      3.4683099999999998                 27.1158