tetra.lmp (written by ASE) 

29160 	 atoms 
3  atom types
0.0      76.612637533625374  xlo xhi
0.0      70.431571516282389  ylo yhi
0.0      70.343770804638694  zlo zhi


Atoms 

     1   1      3.2733599999999998      5.4214399999999996                 3.42733
     2   1                 1.20489      9.4713399999999996      9.3217199999999991
     3   1      3.1276099999999998      9.1690900000000006      7.3600000000000003
     4   1                 3.12852      7.5656699999999999      5.4035399999999996
     5   1                0.968719      9.1248400000000007      5.3876900000000001
     6   1      3.0909499999999999      9.5696499999999993                 3.36876
     7   1                 3.14201                 7.39771      1.7151099999999999
     8   1      1.0472900000000001      9.3481000000000005      1.6287499999999999
     9   1                 3.15679      9.1818600000000004      69.627600000000001
    10   1                 2.98095      3.4520599999999999      9.0594900000000003
    11   1      1.2971900000000001                 5.44902      9.1695600000000006
    12   1      2.9388399999999999      5.4730400000000001      7.1200299999999999
    13   1      3.3543500000000002      3.3710399999999998      5.3143200000000004
    14   1                 1.12453      5.2396000000000003      5.2007500000000002
    15   1                 5.34483      9.2755600000000005      9.2557200000000002
    16   1      3.1553900000000001      3.4488400000000001                 1.37147
    17   1                 1.01576      5.6954700000000003      1.7845800000000001
    18   1      2.8904100000000001      5.5100699999999998      69.921999999999997
    19   1      3.1617600000000001               -0.480489      9.3622200000000007
    20   1      1.0037199999999999      1.3058700000000001      9.1864699999999999
    21   1      3.1842700000000002                 1.30904      7.2252599999999996
    22   1      3.1839300000000001      69.816199999999995      5.2296100000000001
    23   1      3.3192300000000001      7.3181799999999999      9.1559899999999992
    24   1      7.2395399999999999                 1.53546      69.761899999999997
    25   1      5.3713899999999999                 1.72142      1.3763000000000001
    26   1      6.9928400000000002      69.732399999999998                 1.06311
    27   1                 7.25061      9.5387199999999996      7.2983000000000002
    28   1      7.4036400000000002      7.3895400000000002                 5.65123
    29   1      5.3054800000000002      9.2946000000000009      4.7895000000000003
    30   1      7.6086900000000002                 9.20946                 3.28925
    31   1                 7.37981      7.1884100000000002      1.1897800000000001
    32   1      5.2920299999999996      9.0681600000000007                 1.28321
    33   1      7.5106400000000004      9.0433599999999998      69.682199999999995
    34   1      7.6072699999999998      3.4354800000000001      9.1371699999999993
    35   1      5.3974099999999998      5.2587799999999998                 9.31311
    36   1                  7.3327                 5.35398      7.2819599999999998
    37   1      1.1370100000000001      1.6913499999999999      5.0263099999999996
    38   1                 7.32151      3.6213199999999999      5.1867900000000002
    39   1      7.4116499999999998      5.5280899999999997                 3.14994
    40   1      7.4408399999999997                  3.3971                 1.52332
    41   1      5.0922200000000002      5.4008000000000003                 1.36175
    42   1      7.3818000000000001                 5.03803      69.699399999999997
    43   1      7.5349000000000004    -0.51335799999999998      9.2529500000000002
    44   1      5.3222199999999997                 1.65632      9.2961399999999994
    45   1      7.2871300000000003      1.8327800000000001                 7.19773
    46   1      7.5329199999999998      69.874700000000004                  5.2256
    47   1      5.4841300000000004                 1.32264      5.1007600000000002
    48   1      7.5236299999999998      1.2452700000000001      3.2294299999999998
    49   1                   5.109      5.5761900000000004      5.2930099999999998
    50   1      3.3749799999999999                 1.43567      3.2726099999999998
    51   1                 7.36496      7.4665900000000001      9.3294800000000002
    52   1     -1.2282900000000001      9.4701299999999993      3.4589799999999999
    53   1                -3.07707      5.2598200000000004      5.4436600000000004
    54   1     -1.1692199999999999      1.3861699999999999      7.3485100000000001
    55   1                -3.06962      1.4033199999999999      9.4944600000000001
    56   1    -0.94589699999999999    -0.47566900000000001      9.3705599999999993
    57   1    -0.82441500000000001      7.3983100000000004      1.4616899999999999
    58   1                -2.99315      9.2476900000000004      1.2925199999999999
    59   1     -3.2092000000000001      9.0254100000000008      5.3036099999999999
    60   1    -0.92688199999999998      9.7066700000000008    -0.47419899999999998
    61   1     -3.1207699999999998      5.5967099999999999                 1.43943
    62   1    -0.85909400000000002      3.4553699999999998      9.1929999999999996
    63   1    -0.92306900000000003      3.5824099999999999      1.3864099999999999
    64   1     -3.0541700000000001      5.3097200000000004      9.3393099999999993
    65   1    -0.89534199999999997      5.2711600000000001      7.3681900000000002
    66   1                -1.22475      5.2816799999999997      3.3882300000000001
    67   1                -1.05949      5.5317499999999997    -0.47053899999999999
    68   1     -1.0664100000000001      7.1812199999999997      5.3163200000000002
    69   1    -0.97475199999999995      3.4065799999999999      5.3828699999999996
    70   1     -3.2782900000000001                 1.56046      5.5428499999999996
    71   1      3.0563500000000001    -0.50508900000000001      1.4567099999999999
    72   1                -1.24373                 1.44472      3.5222000000000002
    73   1     -1.0389900000000001      9.0966400000000007      7.3571900000000001
    74   1     0.94035999999999997                 1.42266                 1.47675
    75   1     -3.0639099999999999      9.5528399999999998      9.1493900000000004
    76   1      3.0923699999999998      1.5712999999999999    -0.44944000000000001
    77   1    -0.77582200000000001      7.2903799999999999      9.3650599999999997
    78   1                -1.11673               -0.314693      5.4487699999999997
    79   1     -1.0715699999999999    -0.53106900000000001      1.4258599999999999
    80   1     -3.1301999999999999      1.2551099999999999                 1.46587
    81   1    -0.85460400000000003      1.5634699999999999      69.791499999999999
    82   2      5.1092000000000004    -0.38711699999999999      3.4951699999999999
    83   2     -3.6164800000000001      3.4699399999999998      3.4105599999999998
    84   2      4.7875800000000002      69.822400000000002      7.1200999999999999
    85   2      5.3580899999999998      7.4796699999999996      7.5667600000000004
    86   2      4.6913400000000003      3.5510000000000002    -0.51699300000000004
    87   2      5.0571000000000002                  7.3952                 3.65421
    88   2     -3.3255400000000002    -0.58078700000000005                  3.2759
    89   2      4.8924000000000003      3.4247000000000001                 3.08256
    90   2      4.5440399999999999      7.3015299999999996      69.680099999999996
    91   2      5.1102600000000002      3.1508099999999999                 7.29969
    92   2      72.889099999999999    -0.53528699999999996                 7.24085
    93   2     -3.5734900000000001      3.0325099999999998      69.678600000000003
    94   2     -3.6858599999999999                 3.58751                 7.11761
    95   2     -3.6496900000000001      69.799800000000005      69.674499999999995
    96   2     0.68133200000000005      3.6298400000000002               -0.381324
    97   2     0.46701500000000001      3.1917499999999999      3.4922499999999999
    98   2                0.473161      69.837000000000003      3.2760899999999999
    99   2     -3.5010500000000002      7.2544899999999997      3.6507299999999998
   100   2     0.70344099999999998      7.5795199999999996    -0.18110899999999999
   101   2     0.59333800000000003      7.1744899999999996      3.3950399999999998
   102   2     0.94057999999999997                 3.66736      7.2905699999999998
   103   2     0.55345900000000003      69.779899999999998    -0.33536700000000003
   104   2      72.820800000000006      7.0489699999999997      7.5274900000000002
   105   2     0.66206299999999996      7.1835100000000001      7.4813799999999997
   106   2     0.45139899999999999      69.808000000000007      7.5581699999999996
   107   2      4.8215300000000001      69.676000000000002               -0.269063
   108   2                -3.67883      7.5098900000000004    -0.39674900000000002
   109   3      7.3036500000000002      9.2833400000000008      5.4276600000000004
   110   3                 2.75149      1.4715100000000001      1.4079600000000001
   111   3                 2.86992      5.4285800000000002                 1.62639
   112   3                 2.73645      1.5650299999999999      9.3026700000000009
   113   3                -1.43916      1.4527399999999999                 5.51755
   114   3     -1.2496799999999999      9.3446499999999997      9.3413199999999996
   115   3      7.0892900000000001      9.2862500000000008                 9.32043
   116   3      7.1101700000000001      9.0996000000000006                 1.37632
   117   3                -1.27555                 1.43523                 1.36521
   118   3                 2.92909      5.3673700000000002      5.2402800000000003
   119   3      7.1003100000000003      1.3102400000000001      1.4711700000000001
   120   3     -1.1246100000000001                 1.58399      9.1603499999999993
   121   3                 3.02088      5.5251700000000001      9.0982199999999995
   122   3                -1.41103      9.3556000000000008      5.4225500000000002
   123   3      7.0418500000000002      5.4831500000000002      5.3616299999999999
   124   3                 2.93967      9.2653999999999996      1.5870599999999999
   125   3                -1.36513      5.5472400000000004                 1.47716
   126   3      6.8833399999999996      5.3443300000000002      1.3307599999999999
   127   3                 2.67659      9.3094300000000008      5.4978699999999998
   128   3                -1.24519      9.3288499999999992      1.5845100000000001
   129   3      7.2199099999999996      1.4690000000000001      9.1467600000000004
   130   3      2.9182700000000001      9.3841999999999999      9.2808799999999998
   131   3                 -1.1373                 5.23705      9.3262499999999999
   132   3     -1.3255699999999999      5.3551900000000003      5.3887600000000004
   133   3                 7.34877      1.5168900000000001      5.1676799999999998
   134   3      7.1269400000000003      5.1504899999999996      9.2729099999999995
   135   3      2.9481199999999999      1.4802200000000001      5.3367300000000002
   136   1      3.0970499999999999      5.5421800000000001                 14.9633
   137   1     0.82517499999999999      9.2852599999999992                 21.3035
   138   1      2.8868200000000002      9.0882699999999996      19.205500000000001
   139   1                 3.16391      7.4777899999999997      16.924299999999999
   140   1                 1.10673      9.4786900000000003      16.731999999999999
   141   1      3.2111499999999999      9.2699099999999994                 15.1639
   142   1      2.9732799999999999      7.2609199999999996                  13.025
   143   1      1.0477000000000001      9.5682600000000004                 13.3973
   144   1      2.9765100000000002      9.2434700000000003      11.317299999999999
   145   1      3.0734400000000002                 3.41947      21.029199999999999
   146   1                 1.08796      5.5433199999999996      21.101400000000002
   147   1      2.9382000000000001      5.3073899999999998      19.118400000000001
   148   1      2.9917899999999999                 3.17171      17.530200000000001
   149   1                 1.05705      5.3708099999999996      17.238900000000001
   150   1      5.2509399999999999      9.2166999999999994      21.052099999999999
   151   1                 3.19814      3.1769599999999998                 13.1069
   152   1     0.93596400000000002      5.2693300000000001      13.130100000000001
   153   1      3.3528600000000002      5.1720800000000002                  11.179
   154   1      2.6479200000000001      69.776799999999994      21.141300000000001
   155   1     0.87018600000000002                 1.70533                 21.3202
   156   1      2.9971299999999998                 1.38741                 19.3369
   157   1      2.9480900000000001    -0.39014599999999999      17.146100000000001
   158   1                 2.97255      7.2734100000000002      21.005500000000001
   159   1      7.3686600000000002                  1.1978                 11.1092
   160   1      5.3445799999999997      1.5708599999999999      13.201000000000001
   161   1      7.5852199999999996               -0.431259      13.374700000000001
   162   1      7.4200799999999996      9.3503000000000007      18.859999999999999
   163   1      7.0691699999999997      7.1555799999999996      17.038399999999999
   164   1      5.2115400000000003      9.1434599999999993      16.935400000000001
   165   1                 7.17516      9.3000299999999996      15.182499999999999
   166   1                 7.46624      7.1921999999999997      13.230600000000001
   167   1      5.3880499999999998      8.9736499999999992                 13.2293
   168   1                 7.26586      9.4376899999999999      11.178100000000001
   169   1      7.4577799999999996      3.5187200000000001      20.741299999999999
   170   1      5.0622499999999997      5.3293299999999997      20.831199999999999
   171   1      7.4794799999999997      5.5098500000000001      18.936399999999999
   172   1     0.78827199999999997                 1.56196      17.163599999999999
   173   1      7.3846999999999996      3.4105400000000001                 17.1752
   174   1                 7.36111      5.1801000000000004                 15.2211
   175   1      7.4456600000000002      3.2840400000000001                 12.9642
   176   1      5.3661399999999997      5.1331300000000004      13.209899999999999
   177   1      7.5026999999999999      5.1124700000000001                 11.2448
   178   1      7.4479899999999999    -0.49744899999999997                 21.1325
   179   1                 5.25054      1.1935199999999999      21.026700000000002
   180   1      7.3773099999999996                 1.27966                 18.9177
   181   1      7.1827899999999998    -0.51103200000000004      16.744700000000002
   182   1      5.2243399999999998      1.3843300000000001                 17.1159
   183   1      7.5152599999999996      1.4817800000000001                 15.2166
   184   1      5.0649499999999996      5.3338700000000001                 16.8277
   185   1      2.8734500000000001      1.5392300000000001                   15.24
   186   1      7.4486600000000003      7.1905700000000001      21.011500000000002
   187   1                -1.17282      8.9228299999999994                 15.2485
   188   1     -3.3379599999999998      5.4494499999999997      17.040400000000002
   189   1     -1.1512500000000001      1.2722599999999999      19.238900000000001
   190   1                -3.24091      1.5760099999999999      21.284500000000001
   191   1    -0.94310799999999995    -0.48007100000000003                 21.1934
   192   1     -1.0510600000000001      7.4261999999999997      13.076599999999999
   193   1     -3.2849599999999999      9.0636200000000002      13.342499999999999
   194   1     -3.4635199999999999      9.0950500000000005      17.207799999999999
   195   1     -1.1939200000000001      9.3079000000000001                 11.2515
   196   1     -3.1769799999999999      5.2410399999999999                 13.3201
   197   1                -1.18852      3.3334000000000001      21.263999999999999
   198   1                -1.03617      3.3359299999999998      13.311400000000001
   199   1     -3.5940799999999999      5.2193800000000001      21.107700000000001
   200   1                -1.39551      5.1128799999999996      19.121300000000002
   201   1                -1.20356      5.3643599999999996      15.258800000000001
   202   1    -0.78903000000000001                 5.41744      11.298999999999999
   203   1    -0.95449399999999995      7.2313900000000002      17.409600000000001
   204   1     -1.4456100000000001      3.4810500000000002      16.888000000000002
   205   1     -3.0111400000000001                 1.44736                 17.1174
   206   1      3.2257699999999998      69.833600000000004      13.330399999999999
   207   1    -0.87568400000000002      1.2322599999999999                 15.2324
   208   1     -1.5127900000000001      9.0644200000000001      19.046399999999998
   209   1      1.0324199999999999      1.7192000000000001                 13.3055
   210   1                -3.27563      9.0872700000000002      21.104900000000001
   211   1      2.9985400000000002      1.2555400000000001      11.181699999999999
   212   1     -1.3591200000000001      7.2107700000000001      20.847300000000001
   213   1     -1.2962199999999999                 69.8977      17.304099999999998
   214   1    -0.95849799999999996    -0.50770700000000002                 13.2393
   215   1     -2.9342999999999999      1.4668699999999999                 13.2666
   216   1                -1.00325                 1.40228                 11.3774
   217   2      4.8149199999999999      69.609300000000005      15.039999999999999
   218   2     -3.5209600000000001      3.1509100000000001                 14.9528
   219   2      4.6304100000000004    -0.46764299999999998      19.055099999999999
   220   2      4.9311600000000002      7.8212999999999999                 18.9237
   221   2      5.0468700000000002      3.2916400000000001                 11.3133
   222   2      4.9120100000000004      7.3620700000000001      15.185600000000001
   223   2     -3.1888200000000002    -0.26955499999999999                 15.0715
   224   2      4.7983500000000001      3.6699000000000002      15.114800000000001
   225   2      4.7966100000000003      7.4230099999999997      11.371499999999999
   226   2      4.6792999999999996                 3.44686      19.366199999999999
   227   2      72.816299999999998               -0.493896      19.148599999999998
   228   2     -3.5579200000000002      3.3337699999999999      10.847899999999999
   229   2      72.619299999999996      3.4802900000000001                 19.0261
   230   2                -3.37662    -0.58134399999999997                 10.9979
   231   2                  0.5897      3.3191299999999999      11.451499999999999
   232   2     0.49755199999999999      3.2221199999999999      15.209899999999999
   233   2     0.62192199999999997      69.697299999999998      15.182499999999999
   234   2      72.922700000000006      7.2770000000000001                 15.3736
   235   2     0.65016499999999999                  7.4009                 11.3459
   236   2                0.606626      7.1835199999999997                 15.5709
   237   2     0.35143000000000002      3.6454499999999999      19.227699999999999
   238   2     0.62395599999999996    -0.41873700000000003                 11.0724
   239   2      72.869900000000001      7.2509300000000003      18.882000000000001
   240   2     0.58166700000000005      7.4486299999999996      19.311800000000002
   241   2     0.54774199999999995    -0.53459900000000005                  19.474
   242   2      4.8565500000000004    -0.61602400000000002                 10.9503
   243   2      72.866399999999999      7.1386200000000004                 11.3896
   244   3      7.0877999999999997      9.1675000000000004                 17.0139
   245   3      2.7950699999999999                 1.30606      13.321099999999999
   246   3      2.7206999999999999      5.4013299999999997      13.108499999999999
   247   3      2.6581800000000002      1.4941800000000001      21.085100000000001
   248   3                -1.36256      1.3752899999999999                 17.1738
   249   3     -1.5565599999999999                 9.25319      21.153400000000001
   250   3      7.1131000000000002      9.2508900000000001      20.970400000000001
   251   3      7.2558100000000003      9.1176399999999997                 13.1859
   252   3     -1.1323000000000001      1.4147700000000001                 13.2181
   253   3      2.8406899999999999      5.0702499999999997      17.371700000000001
   254   3      7.0898700000000003                 1.42717                 13.0946
   255   3     -1.4646699999999999                 1.37079      21.048999999999999
   256   3      2.8346100000000001      5.3037799999999997      21.234200000000001
   257   3                -1.66736      9.1732499999999995      17.025099999999998
   258   3      6.9598000000000004      5.2918700000000003      17.058399999999999
   259   3      2.8360099999999999      9.3294800000000002      13.337899999999999
   260   3                -1.40011      5.4524400000000002      13.165800000000001
   261   3      7.0806100000000001      5.1869399999999999                 13.2966
   262   3      2.8324500000000001      9.3280999999999992                 17.0731
   263   3     -1.4909699999999999      9.3219200000000004                 13.1525
   264   3      7.0160900000000002      1.4001999999999999      21.003799999999998
   265   3      2.7016499999999999      9.2083200000000005                 21.0931
   266   3                -1.83422      5.3748399999999998      20.927499999999998
   267   3     -1.6200600000000001      5.3101900000000004      17.053699999999999
   268   3      6.9983199999999997                 1.55663                 17.0426
   269   3      6.9538700000000002                 5.44116      21.026199999999999
   270   3      2.5749200000000001      1.4995000000000001      17.180499999999999
   271   1      3.1653199999999999      5.0074100000000001                 26.9116
   272   1                 1.31054                 9.44238      32.433799999999998
   273   1      3.0379999999999998      9.1423199999999998      30.618500000000001
   274   1                 3.06908      7.2891000000000004      28.505199999999999
   275   1     0.78733799999999998      9.3783600000000007      28.745999999999999
   276   1                 2.97763                 9.45702      26.929400000000001
   277   1      3.0852200000000001      7.2452899999999998      24.854700000000001
   278   1                 1.06596      9.2660099999999996                 24.6448
   279   1      3.4312299999999998      9.1934100000000001      22.991700000000002
   280   1      3.1850999999999998      3.4932699999999999      32.537999999999997
   281   1      1.0415099999999999      5.3607399999999998      32.632100000000001
   282   1      3.1351100000000001      5.6384600000000002                 30.8062
   283   1      3.3409200000000001      3.5041000000000002      29.014500000000002
   284   1     0.98575100000000004      5.0986099999999999      28.896999999999998
   285   1      5.1238799999999998      9.4972100000000008      32.273299999999999
   286   1      3.0867200000000001      3.3307799999999999      24.897400000000001
   287   1     0.90770399999999996      5.2534000000000001      24.783100000000001
   288   1      3.2872499999999998      5.2134299999999998      23.116299999999999
   289   1      2.8346499999999999      69.782300000000006      33.010100000000001
   290   1                 1.06609                  1.4234      32.474499999999999
   291   1      3.1565799999999999      1.2987500000000001      30.646799999999999
   292   1      3.1129600000000002               -0.574855      28.883600000000001
   293   1      3.2384499999999998                 7.48515      32.776600000000002
   294   1      7.3192300000000001      1.3557699999999999      22.988099999999999
   295   1      5.0726000000000004                 1.30209      24.851400000000002
   296   1      7.3081100000000001    -0.50273500000000004      24.898499999999999
   297   1      7.3612200000000003      9.5945800000000006      30.744499999999999
   298   1      7.2304599999999999      7.3699899999999996                 28.8096
   299   1      5.0233100000000004      9.3377599999999994                 28.8386
   300   1      7.3606499999999997      9.3216599999999996      26.816600000000001
   301   1      7.2767900000000001      7.3381999999999996      24.738900000000001
   302   1                 5.17605                 9.23733      24.845199999999998
   303   1      7.1907300000000003      9.3511199999999999      22.900700000000001
   304   1      7.3413300000000001      3.5667800000000001      32.626399999999997
   305   1      5.1449299999999996      5.1265900000000002                 32.6815
   306   1      7.4486800000000004      5.4781399999999998                 30.7453
   307   1      1.1422399999999999      1.5001500000000001      28.880500000000001
   308   1      7.2184200000000001      3.4530699999999999                 28.7956
   309   1      7.2647500000000003                 5.51274      26.630400000000002
   310   1      7.2639199999999997      3.4133200000000001      25.040099999999999
   311   1      5.1980300000000002      5.3569699999999996      24.757899999999999
   312   1      7.2091599999999998      5.3548999999999998      22.887699999999999
   313   1                 7.16099      69.676500000000004      32.878399999999999
   314   1      5.1798700000000002      1.3115699999999999      32.397300000000001
   315   1      7.0998000000000001      1.3291999999999999      30.770299999999999
   316   1      7.2821699999999998    -0.51801900000000001                 28.9011
   317   1      5.0337100000000001                 1.49095                 28.9191
   318   1      7.2628500000000003                 1.61426      26.916899999999998
   319   1      5.1579499999999996      5.3465400000000001      28.822099999999999
   320   1      3.0668700000000002                 1.45181      26.869399999999999
   321   1      7.2029100000000001      7.4347799999999999      32.705300000000001
   322   1                -1.00952      9.0345499999999994      26.912400000000002
   323   1     -3.1652399999999998      5.1853999999999996                 29.2287
   324   1                -1.14455      1.2899499999999999                 30.7272
   325   1     -3.2601399999999998                  1.2355      32.767400000000002
   326   1     -1.2098500000000001      69.822000000000003                 32.9039
   327   1     -1.3093399999999999                  7.1429      24.865500000000001
   328   1     -3.5214599999999998      9.2708999999999993                 24.8443
   329   1     -3.4195600000000002      9.3895599999999995                 28.7988
   330   1                -1.45831                 8.96875      23.088100000000001
   331   1     -3.4424000000000001      5.2226600000000003      25.178799999999999
   332   1     -1.3595600000000001      3.3454700000000002      32.660299999999999
   333   1     -1.2582599999999999      3.3467600000000002      24.946999999999999
   334   1     -3.1353200000000001      5.5323900000000004      32.495399999999997
   335   1    -0.92822800000000005      5.3642300000000001      30.848800000000001
   336   1                -1.33985      5.3801100000000002      26.942299999999999
   337   1     -1.3942099999999999      5.3310199999999996                 22.9466
   338   1                -1.04196      7.2109899999999998      28.831700000000001
   339   1     -1.1171500000000001      3.3658700000000001      28.818200000000001
   340   1     -3.4615200000000002      1.5309600000000001      28.802700000000002
   341   1      3.1423399999999999    -0.53644700000000001      24.797799999999999
   342   1                -1.31118      1.5539000000000001      26.839400000000001
   343   1     -1.4849399999999999      9.3174899999999994      30.689900000000002
   344   1     0.96668100000000001                 1.37304      24.817699999999999
   345   1     -3.5063300000000002      9.0785099999999996      33.045999999999999
   346   1                 3.27217      1.5807100000000001      22.935700000000001
   347   1    -0.93988000000000005      7.3930999999999996      32.569000000000003
   348   1     -1.5196400000000001    -0.56380300000000005                 28.8657
   349   1                -1.26996    -0.46022600000000002                 24.8414
   350   1     -3.5061800000000001      1.5040500000000001      25.141100000000002
   351   1     -1.3547800000000001      1.4604900000000001      23.058399999999999
   352   2      4.6618000000000004      69.700100000000006                 26.7013
   353   2      72.674999999999997      3.2771699999999999      27.024899999999999
   354   2      4.5344699999999998      69.645799999999994      30.883900000000001
   355   2      4.4331800000000001      7.3213400000000002      30.552700000000002
   356   2      4.7213099999999999      3.5447199999999999                  23.134
   357   2      4.7073700000000001      7.5272800000000002      27.009899999999998
   358   2      72.802199999999999                 69.7346      26.761399999999998
   359   2      5.0475500000000002      3.5506500000000001                 27.0259