tetra.lmp (written by ASE) 

3645 	 atoms 
3  atom types
0.0       40.19912369363179  xlo xhi
0.0      34.620565155908174  ylo yhi
0.0      34.607434226686948  zlo zhi


Atoms 

     1   1                 4.44252      5.8799599999999996      3.7751199999999998
     2   1      2.2707999999999999      9.6807300000000005      9.6694099999999992
     3   1      4.5335999999999999      9.5439299999999996      7.7040600000000001
     4   1      4.4405000000000001      7.7963699999999996      5.7294900000000002
     5   1                 2.24464      9.7741699999999998      5.7893600000000003
     6   1                 4.44482      9.7627600000000001      3.8409300000000002
     7   1      4.4067800000000004      7.8258400000000004      1.8882099999999999
     8   1      2.2392500000000002      9.7100399999999993      1.8851500000000001
     9   1      4.5110200000000003      9.7025299999999994      34.640099999999997
    10   1      4.6239999999999997      3.8494799999999998      9.7029599999999991
    11   1      2.4302800000000002      5.9173999999999998      9.5413499999999996
    12   1      4.5044399999999998      5.8793199999999999      7.7296199999999997
    13   1      4.4109100000000003      3.9154300000000002      5.6965199999999996
    14   1      2.2972899999999998      5.7031400000000003      5.9000399999999997
    15   1      6.8841299999999999      9.5707500000000003      9.6875099999999996
    16   1      4.4780300000000004      3.8766699999999998      1.8960399999999999
    17   1      2.2156199999999999      5.8572699999999998      1.9023099999999999
    18   1      4.3603100000000001      5.7053099999999999      34.638500000000001
    19   1      4.6755000000000004   -0.091505699999999995      9.5862800000000004
    20   1                 2.48787      2.0522300000000002      9.6215600000000006
    21   1      4.6308199999999999      1.9057900000000001      7.6797300000000002
    22   1      4.5194900000000002   -0.036460399999999997      5.8736199999999998
    23   1      4.4139999999999997      7.7886300000000004      9.7609899999999996
    24   1      9.1103900000000007                 1.91638               -0.124291
    25   1      6.9059600000000003      2.1096200000000001                 1.80091
    26   1      8.7662999999999993               0.0547669      1.7825899999999999
    27   1      8.9353300000000004      9.6325299999999991      7.7202000000000002
    28   1      8.8915699999999998      7.7336400000000003      5.8565300000000002
    29   1      6.7225999999999999      9.6563800000000004                  5.7504
    30   1      8.9791399999999992      9.6619700000000002      3.8086099999999998
    31   1      8.8820499999999996      7.8389800000000003      1.9021699999999999
    32   1      6.6415899999999999      9.6961300000000001                 1.78026
    33   1      8.7489100000000004      9.6284100000000006      34.619799999999998
    34   1      9.0855099999999993      3.8917299999999999      9.7099299999999999
    35   1      6.8096500000000004      5.7285500000000003      9.5517199999999995
    36   1                 8.85609                 5.84788      7.7273500000000004
    37   1      2.3630900000000001      2.0413000000000001                 5.75739
    38   1      8.9517900000000008      3.8413499999999998      5.7628599999999999
    39   1      8.8544999999999998      5.8380700000000001      3.9069699999999998
    40   1      9.0660100000000003      3.9214199999999999                 1.92242
    41   1      6.7414500000000004      5.8202299999999996                 2.03837
    42   1      9.0159699999999994      5.8831499999999997    0.064694699999999994
    43   1      9.0185600000000008      34.699300000000001                 9.60412
    44   1                 6.83026      2.0965199999999999      9.6233500000000003
    45   1      8.9283699999999993                 1.97298      7.7522000000000002
    46   1      8.9127899999999993    0.035981899999999997      5.8737599999999999
    47   1      6.6239400000000002      2.0554600000000001      5.5965999999999996
    48   1      8.9929100000000002                 1.88479      3.8776099999999998
    49   1      6.6456799999999996      5.9634900000000002      5.7124300000000003
    50   1      4.4947400000000002      1.9201699999999999      3.8886400000000001
    51   1      9.0566399999999998      7.6633800000000001      9.7353400000000008
    52   1               0.0114556      9.6539699999999993      3.7165300000000001
    53   1     -2.0642200000000002      5.8542100000000001      5.6392100000000003
    54   1  -0.0041911199999999996                 1.93232      7.6637700000000004
    55   1     -2.1724100000000002      1.8524700000000001      9.7923200000000001
    56   1    0.062162700000000001             -0.00187357      9.6242199999999993
    57   1   -0.073336499999999999      7.7128899999999998                 1.95492
    58   1     -2.1672699999999998      9.6314600000000006      2.0091000000000001
    59   1     -2.2128199999999998      9.6968800000000002      5.6573200000000003
    60   1    0.089053499999999994      9.6075400000000002   -0.090205800000000003
    61   1     -2.1937199999999999      5.5983999999999998      1.8637999999999999
    62   1              -0.0167993      3.7886000000000002      9.6357700000000008
    63   1    0.031881699999999999      3.8258800000000002                 1.87001
    64   1                -2.09754                 5.82552      9.6365700000000007
    65   1    0.034810599999999997      5.7618400000000003                 7.75082
    66   1    0.042563999999999998                 5.74315      3.7858900000000002
    67   1   -0.091612299999999994      5.7848800000000002   -0.070700700000000005
    68   1     0.24333299999999999      7.7830199999999996                  5.7557
    69   1    -0.14366300000000001      3.8685100000000001      5.8017399999999997
    70   1                -2.28363      2.1238600000000001      5.9620699999999998
    71   1      4.3804299999999996      34.661499999999997      1.8554600000000001
    72   1   -0.036159200000000002      1.8765099999999999      3.8819499999999998
    73   1               -0.119467      9.6984399999999997      7.7068700000000003
    74   1      2.1976800000000001      1.9412199999999999      1.9609099999999999
    75   1     -2.2321900000000001      9.6059400000000004      9.6977600000000006
    76   1      4.3366600000000002                 2.05844      34.662700000000001
    77   1  -0.0024449099999999998      7.7405900000000001      9.6023200000000006
    78   1    -0.12845400000000001      34.691800000000001      5.7958100000000004
    79   1   0.0085178700000000003    0.041447299999999999      1.9097200000000001
    80   1     -2.2721300000000002      2.1156299999999999      1.9746300000000001
    81   1    -0.20755999999999999      1.9526399999999999   -0.078845100000000001
    82   2      6.0011900000000002     0.15130199999999999                 3.86016
    83   2      37.389800000000001      3.8497300000000001      3.9028900000000002
    84   2      6.3345599999999997      34.517200000000003      7.6822900000000001
    85   2                 6.11409      7.7571000000000003      7.6783099999999997
    86   2      5.9740900000000003                 3.83338      34.635899999999999
    87   2      6.0089499999999996      7.8022400000000003      3.7449300000000001
    88   2      37.288800000000002                  34.491      3.8878300000000001
    89   2      6.1195300000000001      3.8948700000000001      3.7493799999999999
    90   2      6.0767600000000002                 7.93614  0.00065848399999999998
    91   2      5.9685600000000001      3.8705599999999998      7.7289099999999999
    92   2      37.277000000000001      34.601700000000001      7.6069599999999999
    93   2      37.304299999999998                 3.87113      34.494199999999999
    94   2      37.310699999999997                 3.76518      7.6613800000000003
    95   2      37.304000000000002                0.190275    0.051242999999999997
    96   2      1.5222199999999999                 3.78302               0.0107478
    97   2                 1.60032      3.9628000000000001      3.8917000000000002
    98   2      1.5521400000000001    0.097801299999999994      3.9258999999999999
    99   2      37.436199999999999                  7.6334      3.9110399999999998
   100   2      1.6371599999999999      7.7511900000000002      34.509799999999998
   101   2                  1.5965      7.8548999999999998      3.7008100000000002
   102   2                 1.47275      3.7711999999999999      7.7275700000000001
   103   2      1.5940799999999999   -0.030388800000000001                0.153202
   104   2                 37.2712      7.7415200000000004      7.9007399999999999
   105   2                 1.56108                 7.78627      7.6152100000000003
   106   2                 1.53986    0.086852600000000002      7.6938700000000004
   107   2      5.9625199999999996      34.410499999999999      34.582900000000002
   108   2      37.303699999999999      7.5945799999999997      34.461399999999998
   109   3      8.5067500000000003      9.7097300000000004      5.8073899999999998
   110   3      3.9714399999999999      2.0066299999999999                 1.88845
   111   3                 4.01234      5.7908299999999997                 1.89131
   112   3      4.1964100000000002                 1.89734                 9.67605
   113   3    -0.57771700000000004                 1.97668      5.7748200000000001
   114   3    -0.47909400000000002      9.5785900000000002      9.5889100000000003
   115   3      8.6369299999999996      9.5960000000000001      9.6581200000000003
   116   3      8.4180200000000003      9.6971100000000003                 1.87954
   117   3    -0.55169900000000005                 1.93926      1.9565399999999999
   118   3      4.0227599999999999      5.8041499999999999      5.7621099999999998
   119   3      8.5928100000000001                 1.97159      1.8004199999999999
   120   3    -0.41805300000000001                 1.95712                 9.76417
   121   3                 4.13124      5.8202499999999997      9.7305299999999999
   122   3    -0.41073999999999999      9.7004400000000004      5.8186299999999997
   123   3      8.3455200000000005      5.8960499999999998      5.8287000000000004
   124   3      4.0622999999999996      9.7069799999999997      1.9315800000000001
   125   3    -0.40134700000000001      5.7255399999999996                 1.92648
   126   3      8.5308100000000007      5.8378500000000004      1.9694199999999999
   127   3      4.0147500000000003      9.6641899999999996      5.7672400000000001
   128   3    -0.42155300000000001      9.6039200000000005                 1.90089
   129   3      8.6402800000000006      2.0600100000000001      9.5877300000000005
   130   3                 4.02738      9.6525999999999996      9.6059000000000001
   131   3    -0.36374299999999998      5.8062100000000001      9.6747700000000005
   132   3    -0.29732700000000001      5.8383000000000003      5.7566199999999998
   133   3      8.3832299999999993      2.0072999999999999      5.6939599999999997
   134   3      8.5313099999999995      5.6982100000000004      9.6275899999999996
   135   3      4.1106299999999996                 1.95505      5.7841500000000003
   136   1      4.4120400000000002      5.7574800000000002      15.409000000000001
   137   1                  2.2075      9.4791399999999992      21.139800000000001
   138   1      4.5313400000000001      9.6244200000000006      19.284600000000001
   139   1      4.5232799999999997      7.7391100000000002      17.286000000000001
   140   1      2.2399499999999999                 9.64269      17.345500000000001
   141   1      4.5289299999999999      9.5561500000000006                  15.273
   142   1      4.4701000000000004      7.7379499999999997                 13.3941
   143   1      2.1989100000000001      9.6354299999999995                 13.4024
   144   1      4.4070299999999998      9.7093399999999992      11.509499999999999
   145   1      4.4720500000000003      3.8256700000000001      21.110099999999999
   146   1      2.2485499999999998      5.8681999999999999      21.066400000000002
   147   1      4.4568599999999998      5.7465700000000002      19.245899999999999
   148   1      4.5194299999999998      3.9022399999999999                 17.3489
   149   1      2.2734000000000001      5.7733699999999999      17.430099999999999
   150   1      6.6527500000000002      9.6875300000000006      21.301500000000001
   151   1      4.5332699999999999      3.8132299999999999                 13.4163
   152   1      2.3378199999999998      5.6728199999999998      13.402699999999999
   153   1      4.5910700000000002      5.7845599999999999                 11.5501
   154   1      4.3506600000000004      34.613100000000003      21.334700000000002
   155   1      2.2183999999999999                 1.87144                 21.2713
   156   1      4.5741699999999996                 1.78653      19.260100000000001
   157   1      4.3366899999999999      34.570900000000002      17.414999999999999
   158   1                 4.43119      7.6339600000000001                 21.1388
   159   1      8.8504000000000005                 1.84358      11.552300000000001
   160   1      6.7284499999999996      1.8419000000000001                 13.5618
   161   1      8.9605899999999998      34.619999999999997                  13.461
   162   1      8.9083299999999994      9.5671499999999998                  19.282
   163   1      8.9556500000000003      7.6625899999999998                 17.3202
   164   1      6.6805099999999999      9.6588100000000008      17.499099999999999
   165   1      8.9666700000000006      9.5550099999999993                 15.5433
   166   1      9.0560200000000002      7.7034700000000003      13.573600000000001
   167   1                 6.81297      9.5875000000000004                 13.5022
   168   1      9.1916600000000006      9.6402300000000007      11.617000000000001
   169   1      8.9226200000000002      3.8896299999999999      21.206600000000002
   170   1                 6.62758      5.7008799999999997      21.219999999999999
   171   1      8.8935600000000008                 5.73787      19.327999999999999
   172   1      2.2594099999999999                 1.92106      17.277999999999999
   173   1      8.7937799999999999                 3.77474      17.454899999999999
   174   1      9.0573599999999992                 5.75901      15.441000000000001
   175   1      8.9231700000000007                 3.81955      13.563000000000001
   176   1      6.8332600000000001                 5.84687      13.519299999999999
   177   1      9.0723400000000005      5.7309799999999997      11.652799999999999
   178   1      9.0026399999999995               0.0131769                 21.2334
   179   1      6.7791899999999998      1.9406600000000001      21.227499999999999
   180   1      8.9214500000000001      1.8182700000000001      19.333400000000001
   181   1      9.0173699999999997    0.010078200000000001                 17.3108
   182   1                 6.84612                 1.93564      17.132899999999999
   183   1      9.0300799999999999                  1.9116      15.439399999999999
   184   1      6.7056500000000003      5.7557700000000001      17.348600000000001
   185   1      4.5159799999999999      1.8310500000000001      15.408099999999999
   186   1      8.8107500000000005                 7.67807      21.152799999999999
   187   1    -0.16441500000000001      9.5066600000000001      15.393000000000001
   188   1     -2.2303199999999999      5.6856499999999999                 17.1675
   189   1    -0.24324899999999999      1.9040299999999999      19.262799999999999
   190   1     -2.3550200000000001      1.9295100000000001                 21.1418
   191   1   -0.078453700000000001      34.635399999999997      21.250900000000001
   192   1   0.0052154799999999998      7.6633699999999996      13.483700000000001
   193   1                -2.14642      9.8026900000000001      13.529500000000001
   194   1     -2.3039399999999999      9.6848899999999993      17.351900000000001
   195   1    0.055869299999999997      9.7233499999999999                 11.5359
   196   1     -2.1021399999999999      5.7287299999999997      13.460100000000001
   197   1   -0.070665099999999995      3.8292000000000002      21.107099999999999
   198   1               0.0217743                 3.87405                 13.4061
   199   1     -2.3153800000000002      5.7099700000000002      21.084700000000002
   200   1    -0.14149800000000001                 5.61205      19.206700000000001
   201   1   -0.034925900000000003      5.5930600000000004                 15.3765
   202   1               0.0127379      5.7892299999999999      11.574199999999999
   203   1               -0.200543      7.5914700000000002      17.190000000000001
   204   1   -0.080514500000000003      3.8165499999999999      17.315100000000001
   205   1     -2.3484500000000001      2.1079400000000001      17.312100000000001
   206   1      4.4335300000000002                 34.5443                 13.5097
   207   1    -0.13577900000000001                 1.84032                  15.391
   208   1    -0.18509800000000001      9.5580700000000007                 19.2515
   209   1      2.3317800000000002      1.8005800000000001      13.612399999999999
   210   1     -2.2991299999999999      9.4994899999999998                 21.1768
   211   1                  4.6273      1.9087000000000001      11.521000000000001
   212   1               -0.162802      7.6423100000000002      21.148399999999999
   213   1               -0.194247  -0.0040832000000000004      17.433800000000002
   214   1    0.087552699999999997      34.609499999999997                 13.4907
   215   1     -2.2056200000000001                 1.81986                 13.3955
   216   1    0.088517899999999997                 1.93319                 11.5883
   217   2      6.0913199999999996      34.522300000000001      15.295199999999999
   218   2      37.292299999999997      3.9023599999999998      15.382400000000001
   219   2      6.1051599999999997                 34.5946      19.249099999999999
   220   2      5.9962900000000001      7.6070799999999998      19.420100000000001
   221   2      6.1267899999999997                 3.78104      11.618399999999999
   222   2                 6.13164      7.8490700000000002                 15.4643
   223   2      37.308100000000003                0.111461      15.366099999999999
   224   2      6.1184900000000004      3.7688999999999999                 15.5092
   225   2      6.1186100000000003      7.7141599999999997                 11.5763
   226   2      6.0254899999999996      3.8986499999999999      19.244800000000001
   227   2      37.112699999999997    0.039479100000000003      19.240100000000002
   228   2      37.332099999999997      3.8357100000000002                 11.4764
   229   2                 37.2746                 3.93052      19.160599999999999
   230   2      37.252099999999999                0.126939                 11.5206
   231   2                 1.68465      3.7364099999999998      11.569599999999999
   232   2      1.5963400000000001      3.7243900000000001                 15.3223
   233   2      1.5460199999999999      34.588099999999997                 15.5207
   234   2      37.240099999999998      7.6335600000000001      15.289899999999999
   235   2                 1.58609      7.4849600000000001                 11.6593
   236   2      1.4318500000000001      7.6264900000000004                 15.4192
   237   2                 1.45194      3.8193199999999998                 19.1891
   238   2      1.4742200000000001                 34.4208                 11.5145
   239   2      37.198700000000002      7.7538600000000004      19.171600000000002
   240   2                 1.58954      7.6050199999999997      19.285399999999999
   241   2      1.3571500000000001                0.106914      19.255299999999998
   242   2      6.2101600000000001    0.038697000000000002      11.544499999999999
   243   2                 37.3874      7.5883599999999998                 11.4902
   244   3      8.4355899999999995      9.5863600000000009                 17.3843
   245   3      4.0810500000000003      1.8123800000000001                 13.5374
   246   3      4.1192900000000003      5.7490399999999999                 13.5808
   247   3      3.9689299999999998                 1.91245      21.203099999999999
   248   3    -0.59663100000000002                 1.91279      17.342500000000001
   249   3               -0.502718      9.6193100000000005                  21.131
   250   3      8.4282000000000004      9.6657200000000003      21.236699999999999
   251   3      8.5546500000000005      9.6345399999999994                  13.496
   252   3    -0.47575499999999998                 1.83857      13.513299999999999
   253   3      4.0336499999999997      5.7986800000000001                 17.3931
   254   3      8.4981299999999997      1.8738900000000001      13.535600000000001
   255   3    -0.64314099999999996                 1.85311                 21.1877
   256   3      4.0184499999999996      5.7255799999999999                 21.2559
   257   3    -0.54917000000000005      9.5596099999999993                 17.2776
   258   3                 8.42408      5.7470100000000004                 17.3675
   259   3      3.9388299999999998      9.5882400000000008      13.424099999999999
   260   3               -0.384461      5.7368199999999998                 13.5181
   261   3      8.5111100000000004      5.7588299999999997                 13.5703
   262   3      4.0254899999999996      9.6015899999999998      17.319400000000002
   263   3    -0.38114500000000001      9.6057500000000005                 13.4603
   264   3      8.5317799999999995                 1.81504      21.224599999999999
   265   3      4.0383599999999999      9.6020800000000008      21.124300000000002
   266   3    -0.56042800000000004      5.7512100000000004      21.184699999999999
   267   3               -0.532667      5.7008599999999996      17.346699999999998
   268   3      8.5890699999999995      1.8576299999999999      17.396599999999999
   269   3      8.3780300000000008      5.7870200000000001      21.150099999999998
   270   3      4.0251400000000004                 1.92963      17.393599999999999
   271   1      4.5567799999999998                 5.77278      26.811499999999999
   272   1      2.3556499999999998      9.5361200000000004                 32.5505
   273   1      4.4874799999999997      9.5624300000000009      30.694800000000001
   274   1      4.4188799999999997      7.6736800000000001      28.783899999999999
   275   1      2.3699599999999998      9.4670199999999998      28.814499999999999
   276   1      4.4507899999999996      9.6094200000000001                 26.9161
   277   1      4.3292599999999997      7.6454700000000004                 24.9343
   278   1      2.2549399999999999      9.4879800000000003      24.965299999999999
   279   1      4.3341700000000003      9.4704599999999992      23.042100000000001
   280   1      4.5442900000000002      3.8125499999999999      32.643700000000003
   281   1      2.2945500000000001      5.6728399999999999      32.582799999999999
   282   1      4.3663999999999996      5.8676199999999996      30.703299999999999
   283   1                 4.29854                 3.87039                 28.8216
   284   1      2.1310799999999999                 5.94163      28.738099999999999
   285   1      6.5929900000000004      9.5434800000000006      32.818600000000004
   286   1      4.4113199999999999                 3.80688      25.017900000000001
   287   1      2.1989200000000002      5.6346800000000004      25.114999999999998
   288   1      4.3696400000000004      5.6510100000000003                 23.0624
   289   1      4.5321300000000004   0.0081357500000000006      32.683900000000001
   290   1      2.2989600000000001      1.9099900000000001      32.743499999999997
   291   1      4.5332499999999998                 1.88626      30.768999999999998
   292   1      4.3919800000000002      34.655099999999997      28.836500000000001
   293   1      4.3524799999999999      7.7006899999999998      32.734699999999997
   294   1      8.9311900000000009      1.9437800000000001                  23.169
   295   1      6.5796999999999999      1.9331700000000001                   25.07
   296   1      8.9206500000000002   -0.043833700000000003      24.952300000000001
   297   1      8.8567800000000005      9.6615400000000005                 30.8017
   298   1      8.8290500000000005      7.7558299999999996                 28.9331
   299   1      6.5722100000000001      9.6658399999999993      28.914400000000001
   300   1      8.7164999999999999      9.5186299999999999                 26.9084
   301   1      8.9527400000000004      7.6293899999999999      24.876300000000001
   302   1      6.6556600000000001      9.4536599999999993      24.959499999999998
   303   1      8.9223300000000005      9.5635999999999992                 23.0425
   304   1      8.8642800000000008      3.9458299999999999      32.862900000000003
   305   1      6.5297900000000002      5.8026099999999996      32.752299999999998
   306   1      8.7368000000000006      5.7370599999999996      30.805199999999999
   307   1      2.2650700000000001      1.8590899999999999      28.877300000000002
   308   1      8.9318100000000005      3.8495499999999998                  28.727
   309   1      8.8795599999999997      5.8418099999999997      26.931000000000001
   310   1      8.8188300000000002      3.8003999999999998                 25.1021
   311   1      6.7067100000000002      5.7046599999999996      24.932200000000002
   312   1      8.9763699999999993      5.7124600000000001      23.082699999999999
   313   1      8.6868800000000004             -0.00728423      32.594700000000003
   314   1      6.6503399999999999      2.1457199999999998      32.642299999999999
   315   1      8.8502700000000001      2.0355799999999999      30.817799999999998
   316   1      8.9296299999999995   -0.066280599999999995      28.738299999999999
   317   1      6.6759899999999996      2.0809199999999999      28.870000000000001
   318   1      8.7464200000000005                 1.81671      26.872199999999999
   319   1      6.6619599999999997      5.7397900000000002      28.797000000000001
   320   1      4.4363099999999998      1.9424699999999999      26.833400000000001
   321   1      8.8856199999999994      7.7194500000000001      32.780099999999997
   322   1    0.018875400000000001                 9.52332      26.884499999999999
   323   1                 -2.2605      5.8064999999999998                 28.8522
   324   1    -0.15639400000000001                 1.83969                 30.7638
   325   1                -2.41615      1.9255599999999999                 32.6663
   326   1   -0.044614000000000001      34.661799999999999      32.703200000000002
   327   1   -0.065949400000000005      7.6007499999999997      24.973400000000002
   328   1                -2.22431      9.6342199999999991                 24.9101
   329   1     -2.1060300000000001      9.7950599999999994      28.998699999999999
   330   1   -0.014874099999999999      9.6276100000000007      23.057700000000001
   331   1     -2.2890999999999999      5.6820300000000001      24.961300000000001
   332   1               -0.172682      3.8144200000000001                  32.628
   333   1               -0.122248                 3.79657      24.901599999999998
   334   1     -2.2447900000000001                  5.7839      32.770299999999999
   335   1   -0.057523199999999997      5.6667100000000001      30.710100000000001
   336   1   -0.041332399999999998      5.6882200000000003                 26.9312
   337   1   -0.063485399999999997      5.6931000000000003      23.030999999999999
   338   1   -0.063899700000000004      7.7096299999999998      28.846299999999999
   339   1   -0.079345100000000002      3.7349100000000002      28.843499999999999
   340   1     -2.2255600000000002                 1.94601                 28.7607
   341   1                 4.47919   -0.023597400000000001                 24.9222
   342   1    0.024757500000000002      1.8833899999999999      26.906099999999999
   343   1   -0.074513599999999999      9.5434199999999993      30.834299999999999
   344   1      2.3223600000000002                 1.85751      24.845700000000001
   345   1     -2.2023700000000002      9.4528400000000001      32.773899999999998
   346   1      4.4819599999999999                 1.90445                  23.044
   347   1    0.073722300000000004      7.6399400000000002                   32.68
   348   1               -0.140679              -0.0174758      28.828700000000001
   349   1               -0.120965   -0.062454299999999997      24.957999999999998
   350   1                -2.22343                 1.94048      25.078600000000002
   351   1   -0.070515599999999998      1.8928100000000001      23.120799999999999
   352   2      5.9787800000000004     0.14283399999999999      26.874600000000001
   353   2      37.306600000000003      3.8608199999999999      26.927600000000002
   354   2      6.0604899999999997      34.653100000000002      30.667000000000002
   355   2      6.0205399999999996                  7.6189      30.738900000000001
   356   2      6.2097300000000004      3.9927600000000001      23.197900000000001
   357   2      6.0235500000000002                 7.60771                 26.9358
   358   2      37.185000000000002     0.13952100000000001      26.884799999999998
   359   2                 5.86904      3.7983799999999999      26.998699999999999