L12x12x12_cubic/conf.lmp (written by ASE) 

8640 	 atoms 
3  atom types
0.0      46.920000000000002  xlo xhi
0.0      46.920000000000002  ylo yhi
0.0      46.920000000000002  zlo zhi


Atoms 

     1   2                       0                       0                       0
     2   3      1.9550000000000001      1.9550000000000001      1.9550000000000001
     3   1      1.9550000000000001      1.9550000000000001                       0
     4   1                       0      1.9550000000000001      1.9550000000000001
     5   1      1.9550000000000001                       0      1.9550000000000001
     6   2                       0                       0      3.9100000000000001
     7   3      1.9550000000000001      1.9550000000000001      5.8650000000000002
     8   1      1.9550000000000001      1.9550000000000001      3.9100000000000001
     9   1                       0      1.9550000000000001      5.8650000000000002
    10   1      1.9550000000000001                       0      5.8650000000000002
    11   2                       0                       0      7.8200000000000003
    12   3      1.9550000000000001      1.9550000000000001      9.7750000000000004
    13   1      1.9550000000000001      1.9550000000000001      7.8200000000000003
    14   1                       0      1.9550000000000001      9.7750000000000004
    15   1      1.9550000000000001                       0      9.7750000000000004
    16   2                       0                       0                   11.73
    17   3      1.9550000000000001      1.9550000000000001                  13.685
    18   1      1.9550000000000001      1.9550000000000001                   11.73
    19   1                       0      1.9550000000000001                  13.685
    20   1      1.9550000000000001                       0                  13.685
    21   2                       0                       0      15.640000000000001
    22   3      1.9550000000000001      1.9550000000000001      17.594999999999999
    23   1      1.9550000000000001      1.9550000000000001      15.640000000000001
    24   1                       0      1.9550000000000001      17.594999999999999
    25   1      1.9550000000000001                       0      17.594999999999999
    26   2                       0                       0      19.550000000000001
    27   3      1.9550000000000001      1.9550000000000001      21.505000000000003
    28   1      1.9550000000000001      1.9550000000000001      19.550000000000001
    29   1                       0      1.9550000000000001      21.505000000000003
    30   1      1.9550000000000001                       0      21.505000000000003
    31   2                       0                       0      23.460000000000001
    32   3      1.9550000000000001      1.9550000000000001      25.414999999999999
    33   1      1.9550000000000001      1.9550000000000001      23.460000000000001
    34   1                       0      1.9550000000000001      25.414999999999999
    35   1      1.9550000000000001                       0      25.414999999999999
    36   2                       0                       0      27.370000000000001
    37   3      1.9550000000000001      1.9550000000000001      29.325000000000003
    38   1      1.9550000000000001      1.9550000000000001      27.370000000000001
    39   1                       0      1.9550000000000001      29.325000000000003
    40   1      1.9550000000000001                       0      29.325000000000003
    41   2                       0                       0      31.280000000000001
    42   3      1.9550000000000001      1.9550000000000001      33.234999999999999
    43   1      1.9550000000000001      1.9550000000000001      31.280000000000001
    44   1                       0      1.9550000000000001      33.234999999999999
    45   1      1.9550000000000001                       0      33.234999999999999
    46   2                       0                       0      35.189999999999998
    47   3      1.9550000000000001      1.9550000000000001      37.144999999999996
    48   1      1.9550000000000001      1.9550000000000001      35.189999999999998
    49   1                       0      1.9550000000000001      37.144999999999996
    50   1      1.9550000000000001                       0      37.144999999999996
    51   2                       0                       0      39.100000000000001
    52   3      1.9550000000000001      1.9550000000000001                  41.055
    53   1      1.9550000000000001      1.9550000000000001      39.100000000000001
    54   1                       0      1.9550000000000001                  41.055
    55   1      1.9550000000000001                       0                  41.055
    56   2                       0                       0      43.010000000000005
    57   3      1.9550000000000001      1.9550000000000001      44.965000000000003
    58   1      1.9550000000000001      1.9550000000000001      43.010000000000005
    59   1                       0      1.9550000000000001      44.965000000000003
    60   1      1.9550000000000001                       0      44.965000000000003
    61   2                       0      3.9100000000000001                       0
    62   3      1.9550000000000001      5.8650000000000002      1.9550000000000001
    63   1      1.9550000000000001      5.8650000000000002                       0
    64   1                       0      5.8650000000000002      1.9550000000000001
    65   1      1.9550000000000001      3.9100000000000001      1.9550000000000001
    66   2                       0      3.9100000000000001      3.9100000000000001
    67   3      1.9550000000000001      5.8650000000000002      5.8650000000000002
    68   1      1.9550000000000001      5.8650000000000002      3.9100000000000001
    69   1                       0      5.8650000000000002      5.8650000000000002
    70   1      1.9550000000000001      3.9100000000000001      5.8650000000000002
    71   2                       0      3.9100000000000001      7.8200000000000003
    72   3      1.9550000000000001      5.8650000000000002      9.7750000000000004
    73   1      1.9550000000000001      5.8650000000000002      7.8200000000000003
    74   1                       0      5.8650000000000002      9.7750000000000004
    75   1      1.9550000000000001      3.9100000000000001      9.7750000000000004
    76   2                       0      3.9100000000000001                   11.73
    77   3      1.9550000000000001      5.8650000000000002                  13.685
    78   1      1.9550000000000001      5.8650000000000002                   11.73
    79   1                       0      5.8650000000000002                  13.685
    80   1      1.9550000000000001      3.9100000000000001                  13.685
    81   2                       0      3.9100000000000001      15.640000000000001
    82   3      1.9550000000000001      5.8650000000000002      17.594999999999999
    83   1      1.9550000000000001      5.8650000000000002      15.640000000000001
    84   1                       0      5.8650000000000002      17.594999999999999
    85   1      1.9550000000000001      3.9100000000000001      17.594999999999999
    86   2                       0      3.9100000000000001      19.550000000000001
    87   3      1.9550000000000001      5.8650000000000002      21.505000000000003
    88   1      1.9550000000000001      5.8650000000000002      19.550000000000001
    89   1                       0      5.8650000000000002      21.505000000000003
    90   1      1.9550000000000001      3.9100000000000001      21.505000000000003
    91   2                       0      3.9100000000000001      23.460000000000001
    92   3      1.9550000000000001      5.8650000000000002      25.414999999999999
    93   1      1.9550000000000001      5.8650000000000002      23.460000000000001
    94   1                       0      5.8650000000000002      25.414999999999999
    95   1      1.9550000000000001      3.9100000000000001      25.414999999999999
    96   2                       0      3.9100000000000001      27.370000000000001
    97   3      1.9550000000000001      5.8650000000000002      29.325000000000003
    98   1      1.9550000000000001      5.8650000000000002      27.370000000000001
    99   1                       0      5.8650000000000002      29.325000000000003
   100   1      1.9550000000000001      3.9100000000000001      29.325000000000003
   101   2                       0      3.9100000000000001      31.280000000000001
   102   3      1.9550000000000001      5.8650000000000002      33.234999999999999
   103   1      1.9550000000000001      5.8650000000000002      31.280000000000001
   104   1                       0      5.8650000000000002      33.234999999999999
   105   1      1.9550000000000001      3.9100000000000001      33.234999999999999
   106   2                       0      3.9100000000000001      35.189999999999998
   107   3      1.9550000000000001      5.8650000000000002      37.144999999999996
   108   1      1.9550000000000001      5.8650000000000002      35.189999999999998
   109   1                       0      5.8650000000000002      37.144999999999996
   110   1      1.9550000000000001      3.9100000000000001      37.144999999999996
   111   2                       0      3.9100000000000001      39.100000000000001
   112   3      1.9550000000000001      5.8650000000000002                  41.055
   113   1      1.9550000000000001      5.8650000000000002      39.100000000000001
   114   1                       0      5.8650000000000002                  41.055
   115   1      1.9550000000000001      3.9100000000000001                  41.055
   116   2                       0      3.9100000000000001      43.010000000000005
   117   3      1.9550000000000001      5.8650000000000002      44.965000000000003
   118   1      1.9550000000000001      5.8650000000000002      43.010000000000005
   119   1                       0      5.8650000000000002      44.965000000000003
   120   1      1.9550000000000001      3.9100000000000001      44.965000000000003
   121   2                       0      7.8200000000000003                       0
   122   3      1.9550000000000001      9.7750000000000004      1.9550000000000001
   123   1      1.9550000000000001      9.7750000000000004                       0
   124   1                       0      9.7750000000000004      1.9550000000000001
   125   1      1.9550000000000001      7.8200000000000003      1.9550000000000001
   126   2                       0      7.8200000000000003      3.9100000000000001
   127   3      1.9550000000000001      9.7750000000000004      5.8650000000000002
   128   1      1.9550000000000001      9.7750000000000004      3.9100000000000001
   129   1                       0      9.7750000000000004      5.8650000000000002
   130   1      1.9550000000000001      7.8200000000000003      5.8650000000000002
   131   2                       0      7.8200000000000003      7.8200000000000003
   132   3      1.9550000000000001      9.7750000000000004      9.7750000000000004
   133   1      1.9550000000000001      9.7750000000000004      7.8200000000000003
   134   1                       0      9.7750000000000004      9.7750000000000004
   135   1      1.9550000000000001      7.8200000000000003      9.7750000000000004
   136   2                       0      7.8200000000000003                   11.73
   137   3      1.9550000000000001      9.7750000000000004                  13.685
   138   1      1.9550000000000001      9.7750000000000004                   11.73
   139   1                       0      9.7750000000000004                  13.685
   140   1      1.9550000000000001      7.8200000000000003                  13.685
   141   2                       0      7.8200000000000003      15.640000000000001
   142   3      1.9550000000000001      9.7750000000000004      17.594999999999999
   143   1      1.9550000000000001      9.7750000000000004      15.640000000000001
   144   1                       0      9.7750000000000004      17.594999999999999
   145   1      1.9550000000000001      7.8200000000000003      17.594999999999999
   146   2                       0      7.8200000000000003      19.550000000000001
   147   3      1.9550000000000001      9.7750000000000004      21.505000000000003
   148   1      1.9550000000000001      9.7750000000000004      19.550000000000001
   149   1                       0      9.7750000000000004      21.505000000000003
   150   1      1.9550000000000001      7.8200000000000003      21.505000000000003
   151   2                       0      7.8200000000000003      23.460000000000001
   152   3      1.9550000000000001      9.7750000000000004      25.414999999999999
   153   1      1.9550000000000001      9.7750000000000004      23.460000000000001
   154   1                       0      9.7750000000000004      25.414999999999999
   155   1      1.9550000000000001      7.8200000000000003      25.414999999999999
   156   2                       0      7.8200000000000003      27.370000000000001
   157   3      1.9550000000000001      9.7750000000000004      29.325000000000003
   158   1      1.9550000000000001      9.7750000000000004      27.370000000000001
   159   1                       0      9.7750000000000004      29.325000000000003
   160   1      1.9550000000000001      7.8200000000000003      29.325000000000003
   161   2                       0      7.8200000000000003      31.280000000000001
   162   3      1.9550000000000001      9.7750000000000004      33.234999999999999
   163   1      1.9550000000000001      9.7750000000000004      31.280000000000001
   164   1                       0      9.7750000000000004      33.234999999999999
   165   1      1.9550000000000001      7.8200000000000003      33.234999999999999
   166   2                       0      7.8200000000000003      35.189999999999998
   167   3      1.9550000000000001      9.7750000000000004      37.144999999999996
   168   1      1.9550000000000001      9.7750000000000004      35.189999999999998
   169   1                       0      9.7750000000000004      37.144999999999996
   170   1      1.9550000000000001      7.8200000000000003      37.144999999999996
   171   2                       0      7.8200000000000003      39.100000000000001
   172   3      1.9550000000000001      9.7750000000000004                  41.055
   173   1      1.9550000000000001      9.7750000000000004      39.100000000000001
   174   1                       0      9.7750000000000004                  41.055
   175   1      1.9550000000000001      7.8200000000000003                  41.055
   176   2                       0      7.8200000000000003      43.010000000000005
   177   3      1.9550000000000001      9.7750000000000004      44.965000000000003
   178   1      1.9550000000000001      9.7750000000000004      43.010000000000005
   179   1                       0      9.7750000000000004      44.965000000000003
   180   1      1.9550000000000001      7.8200000000000003      44.965000000000003
   181   2                       0                   11.73                       0
   182   3      1.9550000000000001                  13.685      1.9550000000000001
   183   1      1.9550000000000001                  13.685                       0
   184   1                       0                  13.685      1.9550000000000001
   185   1      1.9550000000000001                   11.73      1.9550000000000001
   186   2                       0                   11.73      3.9100000000000001
   187   3      1.9550000000000001                  13.685      5.8650000000000002
   188   1      1.9550000000000001                  13.685      3.9100000000000001
   189   1                       0                  13.685      5.8650000000000002
   190   1      1.9550000000000001                   11.73      5.8650000000000002
   191   2                       0                   11.73      7.8200000000000003
   192   3      1.9550000000000001                  13.685      9.7750000000000004
   193   1      1.9550000000000001                  13.685      7.8200000000000003
   194   1                       0                  13.685      9.7750000000000004
   195   1      1.9550000000000001                   11.73      9.7750000000000004
   196   2                       0                   11.73                   11.73
   197   3      1.9550000000000001                  13.685                  13.685
   198   1      1.9550000000000001                  13.685                   11.73
   199   1                       0                  13.685                  13.685
   200   1      1.9550000000000001                   11.73                  13.685
   201   2                       0                   11.73      15.640000000000001
   202   3      1.9550000000000001                  13.685      17.594999999999999
   203   1      1.9550000000000001                  13.685      15.640000000000001
   204   1                       0                  13.685      17.594999999999999
   205   1      1.9550000000000001                   11.73      17.594999999999999
   206   2                       0                   11.73      19.550000000000001
   207   3      1.9550000000000001                  13.685      21.505000000000003
   208   1      1.9550000000000001                  13.685      19.550000000000001
   209   1                       0                  13.685      21.505000000000003
   210   1      1.9550000000000001                   11.73      21.505000000000003
   211   2                       0                   11.73      23.460000000000001
   212   3      1.9550000000000001                  13.685      25.414999999999999
   213   1      1.9550000000000001                  13.685      23.460000000000001
   214   1                       0                  13.685      25.414999999999999
   215   1      1.9550000000000001                   11.73      25.414999999999999
   216   2                       0                   11.73      27.370000000000001
   217   3      1.9550000000000001                  13.685      29.325000000000003
   218   1      1.9550000000000001                  13.685      27.370000000000001
   219   1                       0                  13.685      29.325000000000003
   220   1      1.9550000000000001                   11.73      29.325000000000003
   221   2                       0                   11.73      31.280000000000001
   222   3      1.9550000000000001                  13.685      33.234999999999999
   223   1      1.9550000000000001                  13.685      31.280000000000001
   224   1                       0                  13.685      33.234999999999999
   225   1      1.9550000000000001                   11.73      33.234999999999999
   226   2                       0                   11.73      35.189999999999998
   227   3      1.9550000000000001                  13.685      37.144999999999996
   228   1      1.9550000000000001                  13.685      35.189999999999998
   229   1                       0                  13.685      37.144999999999996
   230   1      1.9550000000000001                   11.73      37.144999999999996
   231   2                       0                   11.73      39.100000000000001
   232   3      1.9550000000000001                  13.685                  41.055
   233   1      1.9550000000000001                  13.685      39.100000000000001
   234   1                       0                  13.685                  41.055
   235   1      1.9550000000000001                   11.73                  41.055
   236   2                       0                   11.73      43.010000000000005
   237   3      1.9550000000000001                  13.685      44.965000000000003
   238   1      1.9550000000000001                  13.685      43.010000000000005
   239   1                       0                  13.685      44.965000000000003
   240   1      1.9550000000000001                   11.73      44.965000000000003
   241   2                       0      15.640000000000001                       0
   242   3      1.9550000000000001      17.594999999999999      1.9550000000000001
   243   1      1.9550000000000001      17.594999999999999                       0
   244   1                       0      17.594999999999999      1.9550000000000001
   245   1      1.9550000000000001      15.640000000000001      1.9550000000000001
   246   2                       0      15.640000000000001      3.9100000000000001
   247   3      1.9550000000000001      17.594999999999999      5.8650000000000002
   248   1      1.9550000000000001      17.594999999999999      3.9100000000000001
   249   1                       0      17.594999999999999      5.8650000000000002
   250   1      1.9550000000000001      15.640000000000001      5.8650000000000002
   251   2                       0      15.640000000000001      7.8200000000000003
   252   3      1.9550000000000001      17.594999999999999      9.7750000000000004
   253   1      1.9550000000000001      17.594999999999999      7.8200000000000003
   254   1                       0      17.594999999999999      9.7750000000000004
   255   1      1.9550000000000001      15.640000000000001      9.7750000000000004
   256   2                       0      15.640000000000001                   11.73
   257   3      1.9550000000000001      17.594999999999999                  13.685
   258   1      1.9550000000000001      17.594999999999999                   11.73
   259   1                       0      17.594999999999999                  13.685
   260   1      1.9550000000000001      15.640000000000001                  13.685
   261   2                       0      15.640000000000001      15.640000000000001
   262   3      1.9550000000000001      17.594999999999999      17.594999999999999
   263   1      1.9550000000000001      17.594999999999999      15.640000000000001
   264   1                       0      17.594999999999999      17.594999999999999
   265   1      1.9550000000000001      15.640000000000001      17.594999999999999
   266   2                       0      15.640000000000001      19.550000000000001
   267   3      1.9550000000000001      17.594999999999999      21.505000000000003
   268   1      1.9550000000000001      17.594999999999999      19.550000000000001
   269   1                       0      17.594999999999999      21.505000000000003
   270   1      1.9550000000000001      15.640000000000001      21.505000000000003
   271   2                       0      15.640000000000001      23.460000000000001
   272   3      1.9550000000000001      17.594999999999999      25.414999999999999
   273   1      1.9550000000000001      17.594999999999999      23.460000000000001
   274   1                       0      17.594999999999999      25.414999999999999
   275   1      1.9550000000000001      15.640000000000001      25.414999999999999
   276   2                       0      15.640000000000001      27.370000000000001
   277   3      1.9550000000000001      17.594999999999999      29.325000000000003
   278   1      1.9550000000000001      17.594999999999999      27.370000000000001
   279   1                       0      17.594999999999999      29.325000000000003
   280   1      1.9550000000000001      15.640000000000001      29.325000000000003
   281   2                       0      15.640000000000001      31.280000000000001
   282   3      1.9550000000000001      17.594999999999999      33.234999999999999
   283   1      1.9550000000000001      17.594999999999999      31.280000000000001
   284   1                       0      17.594999999999999      33.234999999999999
   285   1      1.9550000000000001      15.640000000000001      33.234999999999999
   286   2                       0      15.640000000000001      35.189999999999998
   287   3      1.9550000000000001      17.594999999999999      37.144999999999996
   288   1      1.9550000000000001      17.594999999999999      35.189999999999998
   289   1                       0      17.594999999999999      37.144999999999996
   290   1      1.9550000000000001      15.640000000000001      37.144999999999996
   291   2                       0      15.640000000000001      39.100000000000001
   292   3      1.9550000000000001      17.594999999999999                  41.055
   293   1      1.9550000000000001      17.594999999999999      39.100000000000001
   294   1                       0      17.594999999999999                  41.055
   295   1      1.9550000000000001      15.640000000000001                  41.055
   296   2                       0      15.640000000000001      43.010000000000005
   297   3      1.9550000000000001      17.594999999999999      44.965000000000003
   298   1      1.9550000000000001      17.594999999999999      43.010000000000005
   299   1                       0      17.594999999999999      44.965000000000003
   300   1      1.9550000000000001      15.640000000000001      44.965000000000003
   301   2                       0      19.550000000000001                       0
   302   3      1.9550000000000001      21.505000000000003      1.9550000000000001
   303   1      1.9550000000000001      21.505000000000003                       0
   304   1                       0      21.505000000000003      1.9550000000000001
   305   1      1.9550000000000001      19.550000000000001      1.9550000000000001
   306   2                       0      19.550000000000001      3.9100000000000001
   307   3      1.9550000000000001      21.505000000000003      5.8650000000000002
   308   1      1.9550000000000001      21.505000000000003      3.9100000000000001
   309   1                       0      21.505000000000003      5.8650000000000002
   310   1      1.9550000000000001      19.550000000000001      5.8650000000000002
   311   2                       0      19.550000000000001      7.8200000000000003
   312   3      1.9550000000000001      21.505000000000003      9.7750000000000004
   313   1      1.9550000000000001      21.505000000000003      7.8200000000000003
   314   1                       0      21.505000000000003      9.7750000000000004
   315   1      1.9550000000000001      19.550000000000001      9.7750000000000004
   316   2                       0      19.550000000000001                   11.73
   317   3      1.9550000000000001      21.505000000000003                  13.685
   318   1      1.9550000000000001      21.505000000000003                   11.73
   319   1                       0      21.505000000000003                  13.685
   320   1      1.9550000000000001      19.550000000000001                  13.685
   321   2                       0      19.550000000000001      15.640000000000001
   322   3      1.9550000000000001      21.505000000000003      17.594999999999999
   323   1      1.9550000000000001      21.505000000000003      15.640000000000001
   324   1                       0      21.505000000000003      17.594999999999999
   325   1      1.9550000000000001      19.550000000000001      17.594999999999999
   326   2                       0      19.550000000000001      19.550000000000001
   327   3      1.9550000000000001      21.505000000000003      21.505000000000003
   328   1      1.9550000000000001      21.505000000000003      19.550000000000001
   329   1                       0      21.505000000000003      21.505000000000003
   330   1      1.9550000000000001      19.550000000000001      21.505000000000003
   331   2                       0      19.550000000000001      23.460000000000001
   332   3      1.9550000000000001      21.505000000000003      25.414999999999999
   333   1      1.9550000000000001      21.505000000000003      23.460000000000001
   334   1                       0      21.505000000000003      25.414999999999999
   335   1      1.9550000000000001      19.550000000000001      25.414999999999999
   336   2                       0      19.550000000000001      27.370000000000001
   337   3      1.9550000000000001      21.505000000000003      29.325000000000003
   338   1      1.9550000000000001      21.505000000000003      27.370000000000001
   339   1                       0      21.505000000000003      29.325000000000003
   340   1      1.9550000000000001      19.550000000000001      29.325000000000003
   341   2                       0      19.550000000000001      31.280000000000001
   342   3      1.9550000000000001      21.505000000000003      33.234999999999999
   343   1      1.9550000000000001      21.505000000000003      31.280000000000001
   344   1                       0      21.505000000000003      33.234999999999999
   345   1      1.9550000000000001      19.550000000000001      33.234999999999999
   346   2                       0      19.550000000000001      35.189999999999998
   347   3      1.9550000000000001      21.505000000000003      37.144999999999996
   348   1      1.9550000000000001      21.505000000000003      35.189999999999998
   349   1                       0      21.505000000000003      37.144999999999996
   350   1      1.9550000000000001      19.550000000000001      37.144999999999996
   351   2                       0      19.550000000000001      39.100000000000001
   352   3      1.9550000000000001      21.505000000000003                  41.055
   353   1      1.9550000000000001      21.505000000000003      39.100000000000001
   354   1                       0      21.505000000000003                  41.055
   355   1      1.9550000000000001      19.550000000000001                  41.055
   356   2                       0      19.550000000000001      43.010000000000005
   357   3      1.9550000000000001      21.505000000000003      44.965000000000003
   358   1      1.9550000000000001      21.505000000000003      43.010000000000005
   359   1                       0      21.505000000000003      44.965000000000003